created by fftool

31000 atoms
18000 bonds
9000 angles
5 atom types
1 bond types
1 angle types
-35.355339 35.355339 xlo xhi
-35.355339 35.355339 ylo yhi
-50.000000 50.000000 zlo zhi

Masses

   1   28.085  # Cw
   2   28.085  # Siw
   3   28.085  # Ptw
   4    1.008  # Hw
   5   15.999  # Ow

Bond Coeffs

   1   517.630258     1.000000  # Ow-Hw

Angle Coeffs

   1    37.950526   109.470000  # Hw-Ow-Hw

Atoms

      1       1    1   0.000000 -3.429468e+01 -3.429468e+01  3.875000e+01  # Cw homo_wall
      2       1    1   0.000000 -3.075915e+01 -3.429468e+01  3.875000e+01  # Cw homo_wall
      3       1    1   0.000000 -2.722361e+01 -3.429468e+01  3.875000e+01  # Cw homo_wall
      4       1    1   0.000000 -2.368808e+01 -3.429468e+01  3.875000e+01  # Cw homo_wall
      5       1    1   0.000000 -2.015254e+01 -3.429468e+01  3.875000e+01  # Cw homo_wall
      6       1    1   0.000000 -1.661701e+01 -3.429468e+01  3.875000e+01  # Cw homo_wall
      7       1    1   0.000000 -1.308147e+01 -3.429468e+01  3.875000e+01  # Cw homo_wall
      8       1    1   0.000000 -9.545942e+00 -3.429468e+01  3.875000e+01  # Cw homo_wall
      9       1    1   0.000000 -6.010408e+00 -3.429468e+01  3.875000e+01  # Cw homo_wall
     10       1    1   0.000000 -2.474874e+00 -3.429468e+01  3.875000e+01  # Cw homo_wall
     11       1    1   0.000000  1.060660e+00 -3.429468e+01  3.875000e+01  # Cw homo_wall
     12       1    1   0.000000  4.596194e+00 -3.429468e+01  3.875000e+01  # Cw homo_wall
     13       1    1   0.000000  8.131728e+00 -3.429468e+01  3.875000e+01  # Cw homo_wall
     14       1    1   0.000000  1.166726e+01 -3.429468e+01  3.875000e+01  # Cw homo_wall
     15       1    1   0.000000  1.520280e+01 -3.429468e+01  3.875000e+01  # Cw homo_wall
     16       1    1   0.000000  1.873833e+01 -3.429468e+01  3.875000e+01  # Cw homo_wall
     17       1    1   0.000000  2.227386e+01 -3.429468e+01  3.875000e+01  # Cw homo_wall
     18       1    1   0.000000  2.580940e+01 -3.429468e+01  3.875000e+01  # Cw homo_wall
     19       1    1   0.000000  2.934493e+01 -3.429468e+01  3.875000e+01  # Cw homo_wall
     20       1    1   0.000000  3.288047e+01 -3.429468e+01  3.875000e+01  # Cw homo_wall
     21       1    1   0.000000 -3.429468e+01 -3.075915e+01  3.875000e+01  # Cw homo_wall
     22       1    1   0.000000 -3.075915e+01 -3.075915e+01  3.875000e+01  # Cw homo_wall
     23       1    1   0.000000 -2.722361e+01 -3.075915e+01  3.875000e+01  # Cw homo_wall
     24       1    1   0.000000 -2.368808e+01 -3.075915e+01  3.875000e+01  # Cw homo_wall
     25       1    1   0.000000 -2.015254e+01 -3.075915e+01  3.875000e+01  # Cw homo_wall
     26       1    1   0.000000 -1.661701e+01 -3.075915e+01  3.875000e+01  # Cw homo_wall
     27       1    1   0.000000 -1.308147e+01 -3.075915e+01  3.875000e+01  # Cw homo_wall
     28       1    1   0.000000 -9.545942e+00 -3.075915e+01  3.875000e+01  # Cw homo_wall
     29       1    1   0.000000 -6.010408e+00 -3.075915e+01  3.875000e+01  # Cw homo_wall
     30       1    1   0.000000 -2.474874e+00 -3.075915e+01  3.875000e+01  # Cw homo_wall
     31       1    1   0.000000  1.060660e+00 -3.075915e+01  3.875000e+01  # Cw homo_wall
     32       1    1   0.000000  4.596194e+00 -3.075915e+01  3.875000e+01  # Cw homo_wall
     33       1    1   0.000000  8.131728e+00 -3.075915e+01  3.875000e+01  # Cw homo_wall
     34       1    1   0.000000  1.166726e+01 -3.075915e+01  3.875000e+01  # Cw homo_wall
     35       1    1   0.000000  1.520280e+01 -3.075915e+01  3.875000e+01  # Cw homo_wall
     36       1    1   0.000000  1.873833e+01 -3.075915e+01  3.875000e+01  # Cw homo_wall
     37       1    1   0.000000  2.227386e+01 -3.075915e+01  3.875000e+01  # Cw homo_wall
     38       1    1   0.000000  2.580940e+01 -3.075915e+01  3.875000e+01  # Cw homo_wall
     39       1    1   0.000000  2.934493e+01 -3.075915e+01  3.875000e+01  # Cw homo_wall
     40       1    1   0.000000  3.288047e+01 -3.075915e+01  3.875000e+01  # Cw homo_wall
     41       1    1   0.000000 -3.429468e+01 -2.722361e+01  3.875000e+01  # Cw homo_wall
     42       1    1   0.000000 -3.075915e+01 -2.722361e+01  3.875000e+01  # Cw homo_wall
     43       1    1   0.000000 -2.722361e+01 -2.722361e+01  3.875000e+01  # Cw homo_wall
     44       1    1   0.000000 -2.368808e+01 -2.722361e+01  3.875000e+01  # Cw homo_wall
     45       1    1   0.000000 -2.015254e+01 -2.722361e+01  3.875000e+01  # Cw homo_wall
     46       1    1   0.000000 -1.661701e+01 -2.722361e+01  3.875000e+01  # Cw homo_wall
     47       1    1   0.000000 -1.308147e+01 -2.722361e+01  3.875000e+01  # Cw homo_wall
     48       1    1   0.000000 -9.545942e+00 -2.722361e+01  3.875000e+01  # Cw homo_wall
     49       1    1   0.000000 -6.010408e+00 -2.722361e+01  3.875000e+01  # Cw homo_wall
     50       1    1   0.000000 -2.474874e+00 -2.722361e+01  3.875000e+01  # Cw homo_wall
     51       1    1   0.000000  1.060660e+00 -2.722361e+01  3.875000e+01  # Cw homo_wall
     52       1    1   0.000000  4.596194e+00 -2.722361e+01  3.875000e+01  # Cw homo_wall
     53       1    1   0.000000  8.131728e+00 -2.722361e+01  3.875000e+01  # Cw homo_wall
     54       1    1   0.000000  1.166726e+01 -2.722361e+01  3.875000e+01  # Cw homo_wall
     55       1    1   0.000000  1.520280e+01 -2.722361e+01  3.875000e+01  # Cw homo_wall
     56       1    1   0.000000  1.873833e+01 -2.722361e+01  3.875000e+01  # Cw homo_wall
     57       1    1   0.000000  2.227386e+01 -2.722361e+01  3.875000e+01  # Cw homo_wall
     58       1    1   0.000000  2.580940e+01 -2.722361e+01  3.875000e+01  # Cw homo_wall
     59       1    1   0.000000  2.934493e+01 -2.722361e+01  3.875000e+01  # Cw homo_wall
     60       1    1   0.000000  3.288047e+01 -2.722361e+01  3.875000e+01  # Cw homo_wall
     61       1    1   0.000000 -3.429468e+01 -2.368808e+01  3.875000e+01  # Cw homo_wall
     62       1    1   0.000000 -3.075915e+01 -2.368808e+01  3.875000e+01  # Cw homo_wall
     63       1    1   0.000000 -2.722361e+01 -2.368808e+01  3.875000e+01  # Cw homo_wall
     64       1    1   0.000000 -2.368808e+01 -2.368808e+01  3.875000e+01  # Cw homo_wall
     65       1    1   0.000000 -2.015254e+01 -2.368808e+01  3.875000e+01  # Cw homo_wall
     66       1    1   0.000000 -1.661701e+01 -2.368808e+01  3.875000e+01  # Cw homo_wall
     67       1    1   0.000000 -1.308147e+01 -2.368808e+01  3.875000e+01  # Cw homo_wall
     68       1    1   0.000000 -9.545942e+00 -2.368808e+01  3.875000e+01  # Cw homo_wall
     69       1    1   0.000000 -6.010408e+00 -2.368808e+01  3.875000e+01  # Cw homo_wall
     70       1    1   0.000000 -2.474874e+00 -2.368808e+01  3.875000e+01  # Cw homo_wall
     71       1    1   0.000000  1.060660e+00 -2.368808e+01  3.875000e+01  # Cw homo_wall
     72       1    1   0.000000  4.596194e+00 -2.368808e+01  3.875000e+01  # Cw homo_wall
     73       1    1   0.000000  8.131728e+00 -2.368808e+01  3.875000e+01  # Cw homo_wall
     74       1    1   0.000000  1.166726e+01 -2.368808e+01  3.875000e+01  # Cw homo_wall
     75       1    1   0.000000  1.520280e+01 -2.368808e+01  3.875000e+01  # Cw homo_wall
     76       1    1   0.000000  1.873833e+01 -2.368808e+01  3.875000e+01  # Cw homo_wall
     77       1    1   0.000000  2.227386e+01 -2.368808e+01  3.875000e+01  # Cw homo_wall
     78       1    1   0.000000  2.580940e+01 -2.368808e+01  3.875000e+01  # Cw homo_wall
     79       1    1   0.000000  2.934493e+01 -2.368808e+01  3.875000e+01  # Cw homo_wall
     80       1    1   0.000000  3.288047e+01 -2.368808e+01  3.875000e+01  # Cw homo_wall
     81       1    1   0.000000 -3.429468e+01 -2.015254e+01  3.875000e+01  # Cw homo_wall
     82       1    1   0.000000 -3.075915e+01 -2.015254e+01  3.875000e+01  # Cw homo_wall
     83       1    1   0.000000 -2.722361e+01 -2.015254e+01  3.875000e+01  # Cw homo_wall
     84       1    1   0.000000 -2.368808e+01 -2.015254e+01  3.875000e+01  # Cw homo_wall
     85       1    1   0.000000 -2.015254e+01 -2.015254e+01  3.875000e+01  # Cw homo_wall
     86       1    1   0.000000 -1.661701e+01 -2.015254e+01  3.875000e+01  # Cw homo_wall
     87       1    1   0.000000 -1.308147e+01 -2.015254e+01  3.875000e+01  # Cw homo_wall
     88       1    1   0.000000 -9.545942e+00 -2.015254e+01  3.875000e+01  # Cw homo_wall
     89       1    1   0.000000 -6.010408e+00 -2.015254e+01  3.875000e+01  # Cw homo_wall
     90       1    1   0.000000 -2.474874e+00 -2.015254e+01  3.875000e+01  # Cw homo_wall
     91       1    1   0.000000  1.060660e+00 -2.015254e+01  3.875000e+01  # Cw homo_wall
     92       1    1   0.000000  4.596194e+00 -2.015254e+01  3.875000e+01  # Cw homo_wall
     93       1    1   0.000000  8.131728e+00 -2.015254e+01  3.875000e+01  # Cw homo_wall
     94       1    1   0.000000  1.166726e+01 -2.015254e+01  3.875000e+01  # Cw homo_wall
     95       1    1   0.000000  1.520280e+01 -2.015254e+01  3.875000e+01  # Cw homo_wall
     96       1    1   0.000000  1.873833e+01 -2.015254e+01  3.875000e+01  # Cw homo_wall
     97       1    1   0.000000  2.227386e+01 -2.015254e+01  3.875000e+01  # Cw homo_wall
     98       1    1   0.000000  2.580940e+01 -2.015254e+01  3.875000e+01  # Cw homo_wall
     99       1    1   0.000000  2.934493e+01 -2.015254e+01  3.875000e+01  # Cw homo_wall
    100       1    1   0.000000  3.288047e+01 -2.015254e+01  3.875000e+01  # Cw homo_wall
    101       1    1   0.000000 -3.429468e+01 -1.661701e+01  3.875000e+01  # Cw homo_wall
    102       1    1   0.000000 -3.075915e+01 -1.661701e+01  3.875000e+01  # Cw homo_wall
    103       1    1   0.000000 -2.722361e+01 -1.661701e+01  3.875000e+01  # Cw homo_wall
    104       1    1   0.000000 -2.368808e+01 -1.661701e+01  3.875000e+01  # Cw homo_wall
    105       1    1   0.000000 -2.015254e+01 -1.661701e+01  3.875000e+01  # Cw homo_wall
    106       1    1   0.000000 -1.661701e+01 -1.661701e+01  3.875000e+01  # Cw homo_wall
    107       1    1   0.000000 -1.308147e+01 -1.661701e+01  3.875000e+01  # Cw homo_wall
    108       1    1   0.000000 -9.545942e+00 -1.661701e+01  3.875000e+01  # Cw homo_wall
    109       1    1   0.000000 -6.010408e+00 -1.661701e+01  3.875000e+01  # Cw homo_wall
    110       1    1   0.000000 -2.474874e+00 -1.661701e+01  3.875000e+01  # Cw homo_wall
    111       1    1   0.000000  1.060660e+00 -1.661701e+01  3.875000e+01  # Cw homo_wall
    112       1    1   0.000000  4.596194e+00 -1.661701e+01  3.875000e+01  # Cw homo_wall
    113       1    1   0.000000  8.131728e+00 -1.661701e+01  3.875000e+01  # Cw homo_wall
    114       1    1   0.000000  1.166726e+01 -1.661701e+01  3.875000e+01  # Cw homo_wall
    115       1    1   0.000000  1.520280e+01 -1.661701e+01  3.875000e+01  # Cw homo_wall
    116       1    1   0.000000  1.873833e+01 -1.661701e+01  3.875000e+01  # Cw homo_wall
    117       1    1   0.000000  2.227386e+01 -1.661701e+01  3.875000e+01  # Cw homo_wall
    118       1    1   0.000000  2.580940e+01 -1.661701e+01  3.875000e+01  # Cw homo_wall
    119       1    1   0.000000  2.934493e+01 -1.661701e+01  3.875000e+01  # Cw homo_wall
    120       1    1   0.000000  3.288047e+01 -1.661701e+01  3.875000e+01  # Cw homo_wall
    121       1    1   0.000000 -3.429468e+01 -1.308147e+01  3.875000e+01  # Cw homo_wall
    122       1    1   0.000000 -3.075915e+01 -1.308147e+01  3.875000e+01  # Cw homo_wall
    123       1    1   0.000000 -2.722361e+01 -1.308147e+01  3.875000e+01  # Cw homo_wall
    124       1    1   0.000000 -2.368808e+01 -1.308147e+01  3.875000e+01  # Cw homo_wall
    125       1    1   0.000000 -2.015254e+01 -1.308147e+01  3.875000e+01  # Cw homo_wall
    126       1    1   0.000000 -1.661701e+01 -1.308147e+01  3.875000e+01  # Cw homo_wall
    127       1    1   0.000000 -1.308147e+01 -1.308147e+01  3.875000e+01  # Cw homo_wall
    128       1    1   0.000000 -9.545942e+00 -1.308147e+01  3.875000e+01  # Cw homo_wall
    129       1    1   0.000000 -6.010408e+00 -1.308147e+01  3.875000e+01  # Cw homo_wall
    130       1    1   0.000000 -2.474874e+00 -1.308147e+01  3.875000e+01  # Cw homo_wall
    131       1    1   0.000000  1.060660e+00 -1.308147e+01  3.875000e+01  # Cw homo_wall
    132       1    1   0.000000  4.596194e+00 -1.308147e+01  3.875000e+01  # Cw homo_wall
    133       1    1   0.000000  8.131728e+00 -1.308147e+01  3.875000e+01  # Cw homo_wall
    134       1    1   0.000000  1.166726e+01 -1.308147e+01  3.875000e+01  # Cw homo_wall
    135       1    1   0.000000  1.520280e+01 -1.308147e+01  3.875000e+01  # Cw homo_wall
    136       1    1   0.000000  1.873833e+01 -1.308147e+01  3.875000e+01  # Cw homo_wall
    137       1    1   0.000000  2.227386e+01 -1.308147e+01  3.875000e+01  # Cw homo_wall
    138       1    1   0.000000  2.580940e+01 -1.308147e+01  3.875000e+01  # Cw homo_wall
    139       1    1   0.000000  2.934493e+01 -1.308147e+01  3.875000e+01  # Cw homo_wall
    140       1    1   0.000000  3.288047e+01 -1.308147e+01  3.875000e+01  # Cw homo_wall
    141       1    1   0.000000 -3.429468e+01 -9.545942e+00  3.875000e+01  # Cw homo_wall
    142       1    1   0.000000 -3.075915e+01 -9.545942e+00  3.875000e+01  # Cw homo_wall
    143       1    1   0.000000 -2.722361e+01 -9.545942e+00  3.875000e+01  # Cw homo_wall
    144       1    1   0.000000 -2.368808e+01 -9.545942e+00  3.875000e+01  # Cw homo_wall
    145       1    1   0.000000 -2.015254e+01 -9.545942e+00  3.875000e+01  # Cw homo_wall
    146       1    1   0.000000 -1.661701e+01 -9.545942e+00  3.875000e+01  # Cw homo_wall
    147       1    1   0.000000 -1.308147e+01 -9.545942e+00  3.875000e+01  # Cw homo_wall
    148       1    1   0.000000 -9.545942e+00 -9.545942e+00  3.875000e+01  # Cw homo_wall
    149       1    1   0.000000 -6.010408e+00 -9.545942e+00  3.875000e+01  # Cw homo_wall
    150       1    1   0.000000 -2.474874e+00 -9.545942e+00  3.875000e+01  # Cw homo_wall
    151       1    1   0.000000  1.060660e+00 -9.545942e+00  3.875000e+01  # Cw homo_wall
    152       1    1   0.000000  4.596194e+00 -9.545942e+00  3.875000e+01  # Cw homo_wall
    153       1    1   0.000000  8.131728e+00 -9.545942e+00  3.875000e+01  # Cw homo_wall
    154       1    1   0.000000  1.166726e+01 -9.545942e+00  3.875000e+01  # Cw homo_wall
    155       1    1   0.000000  1.520280e+01 -9.545942e+00  3.875000e+01  # Cw homo_wall
    156       1    1   0.000000  1.873833e+01 -9.545942e+00  3.875000e+01  # Cw homo_wall
    157       1    1   0.000000  2.227386e+01 -9.545942e+00  3.875000e+01  # Cw homo_wall
    158       1    1   0.000000  2.580940e+01 -9.545942e+00  3.875000e+01  # Cw homo_wall
    159       1    1   0.000000  2.934493e+01 -9.545942e+00  3.875000e+01  # Cw homo_wall
    160       1    1   0.000000  3.288047e+01 -9.545942e+00  3.875000e+01  # Cw homo_wall
    161       1    1   0.000000 -3.429468e+01 -6.010408e+00  3.875000e+01  # Cw homo_wall
    162       1    1   0.000000 -3.075915e+01 -6.010408e+00  3.875000e+01  # Cw homo_wall
    163       1    1   0.000000 -2.722361e+01 -6.010408e+00  3.875000e+01  # Cw homo_wall
    164       1    1   0.000000 -2.368808e+01 -6.010408e+00  3.875000e+01  # Cw homo_wall
    165       1    1   0.000000 -2.015254e+01 -6.010408e+00  3.875000e+01  # Cw homo_wall
    166       1    1   0.000000 -1.661701e+01 -6.010408e+00  3.875000e+01  # Cw homo_wall
    167       1    1   0.000000 -1.308147e+01 -6.010408e+00  3.875000e+01  # Cw homo_wall
    168       1    1   0.000000 -9.545942e+00 -6.010408e+00  3.875000e+01  # Cw homo_wall
    169       1    1   0.000000 -6.010408e+00 -6.010408e+00  3.875000e+01  # Cw homo_wall
    170       1    1   0.000000 -2.474874e+00 -6.010408e+00  3.875000e+01  # Cw homo_wall
    171       1    1   0.000000  1.060660e+00 -6.010408e+00  3.875000e+01  # Cw homo_wall
    172       1    1   0.000000  4.596194e+00 -6.010408e+00  3.875000e+01  # Cw homo_wall
    173       1    1   0.000000  8.131728e+00 -6.010408e+00  3.875000e+01  # Cw homo_wall
    174       1    1   0.000000  1.166726e+01 -6.010408e+00  3.875000e+01  # Cw homo_wall
    175       1    1   0.000000  1.520280e+01 -6.010408e+00  3.875000e+01  # Cw homo_wall
    176       1    1   0.000000  1.873833e+01 -6.010408e+00  3.875000e+01  # Cw homo_wall
    177       1    1   0.000000  2.227386e+01 -6.010408e+00  3.875000e+01  # Cw homo_wall
    178       1    1   0.000000  2.580940e+01 -6.010408e+00  3.875000e+01  # Cw homo_wall
    179       1    1   0.000000  2.934493e+01 -6.010408e+00  3.875000e+01  # Cw homo_wall
    180       1    1   0.000000  3.288047e+01 -6.010408e+00  3.875000e+01  # Cw homo_wall
    181       1    1   0.000000 -3.429468e+01 -2.474874e+00  3.875000e+01  # Cw homo_wall
    182       1    1   0.000000 -3.075915e+01 -2.474874e+00  3.875000e+01  # Cw homo_wall
    183       1    1   0.000000 -2.722361e+01 -2.474874e+00  3.875000e+01  # Cw homo_wall
    184       1    1   0.000000 -2.368808e+01 -2.474874e+00  3.875000e+01  # Cw homo_wall
    185       1    1   0.000000 -2.015254e+01 -2.474874e+00  3.875000e+01  # Cw homo_wall
    186       1    1   0.000000 -1.661701e+01 -2.474874e+00  3.875000e+01  # Cw homo_wall
    187       1    1   0.000000 -1.308147e+01 -2.474874e+00  3.875000e+01  # Cw homo_wall
    188       1    1   0.000000 -9.545942e+00 -2.474874e+00  3.875000e+01  # Cw homo_wall
    189       1    1   0.000000 -6.010408e+00 -2.474874e+00  3.875000e+01  # Cw homo_wall
    190       1    1   0.000000 -2.474874e+00 -2.474874e+00  3.875000e+01  # Cw homo_wall
    191       1    1   0.000000  1.060660e+00 -2.474874e+00  3.875000e+01  # Cw homo_wall
    192       1    1   0.000000  4.596194e+00 -2.474874e+00  3.875000e+01  # Cw homo_wall
    193       1    1   0.000000  8.131728e+00 -2.474874e+00  3.875000e+01  # Cw homo_wall
    194       1    1   0.000000  1.166726e+01 -2.474874e+00  3.875000e+01  # Cw homo_wall
    195       1    1   0.000000  1.520280e+01 -2.474874e+00  3.875000e+01  # Cw homo_wall
    196       1    1   0.000000  1.873833e+01 -2.474874e+00  3.875000e+01  # Cw homo_wall
    197       1    1   0.000000  2.227386e+01 -2.474874e+00  3.875000e+01  # Cw homo_wall
    198       1    1   0.000000  2.580940e+01 -2.474874e+00  3.875000e+01  # Cw homo_wall
    199       1    1   0.000000  2.934493e+01 -2.474874e+00  3.875000e+01  # Cw homo_wall
    200       1    1   0.000000  3.288047e+01 -2.474874e+00  3.875000e+01  # Cw homo_wall
    201       1    1   0.000000 -3.429468e+01  1.060660e+00  3.875000e+01  # Cw homo_wall
    202       1    1   0.000000 -3.075915e+01  1.060660e+00  3.875000e+01  # Cw homo_wall
    203       1    1   0.000000 -2.722361e+01  1.060660e+00  3.875000e+01  # Cw homo_wall
    204       1    1   0.000000 -2.368808e+01  1.060660e+00  3.875000e+01  # Cw homo_wall
    205       1    1   0.000000 -2.015254e+01  1.060660e+00  3.875000e+01  # Cw homo_wall
    206       1    1   0.000000 -1.661701e+01  1.060660e+00  3.875000e+01  # Cw homo_wall
    207       1    1   0.000000 -1.308147e+01  1.060660e+00  3.875000e+01  # Cw homo_wall
    208       1    1   0.000000 -9.545942e+00  1.060660e+00  3.875000e+01  # Cw homo_wall
    209       1    1   0.000000 -6.010408e+00  1.060660e+00  3.875000e+01  # Cw homo_wall
    210       1    1   0.000000 -2.474874e+00  1.060660e+00  3.875000e+01  # Cw homo_wall
    211       1    1   0.000000  1.060660e+00  1.060660e+00  3.875000e+01  # Cw homo_wall
    212       1    1   0.000000  4.596194e+00  1.060660e+00  3.875000e+01  # Cw homo_wall
    213       1    1   0.000000  8.131728e+00  1.060660e+00  3.875000e+01  # Cw homo_wall
    214       1    1   0.000000  1.166726e+01  1.060660e+00  3.875000e+01  # Cw homo_wall
    215       1    1   0.000000  1.520280e+01  1.060660e+00  3.875000e+01  # Cw homo_wall
    216       1    1   0.000000  1.873833e+01  1.060660e+00  3.875000e+01  # Cw homo_wall
    217       1    1   0.000000  2.227386e+01  1.060660e+00  3.875000e+01  # Cw homo_wall
    218       1    1   0.000000  2.580940e+01  1.060660e+00  3.875000e+01  # Cw homo_wall
    219       1    1   0.000000  2.934493e+01  1.060660e+00  3.875000e+01  # Cw homo_wall
    220       1    1   0.000000  3.288047e+01  1.060660e+00  3.875000e+01  # Cw homo_wall
    221       1    1   0.000000 -3.429468e+01  4.596194e+00  3.875000e+01  # Cw homo_wall
    222       1    1   0.000000 -3.075915e+01  4.596194e+00  3.875000e+01  # Cw homo_wall
    223       1    1   0.000000 -2.722361e+01  4.596194e+00  3.875000e+01  # Cw homo_wall
    224       1    1   0.000000 -2.368808e+01  4.596194e+00  3.875000e+01  # Cw homo_wall
    225       1    1   0.000000 -2.015254e+01  4.596194e+00  3.875000e+01  # Cw homo_wall
    226       1    1   0.000000 -1.661701e+01  4.596194e+00  3.875000e+01  # Cw homo_wall
    227       1    1   0.000000 -1.308147e+01  4.596194e+00  3.875000e+01  # Cw homo_wall
    228       1    1   0.000000 -9.545942e+00  4.596194e+00  3.875000e+01  # Cw homo_wall
    229       1    1   0.000000 -6.010408e+00  4.596194e+00  3.875000e+01  # Cw homo_wall
    230       1    1   0.000000 -2.474874e+00  4.596194e+00  3.875000e+01  # Cw homo_wall
    231       1    1   0.000000  1.060660e+00  4.596194e+00  3.875000e+01  # Cw homo_wall
    232       1    1   0.000000  4.596194e+00  4.596194e+00  3.875000e+01  # Cw homo_wall
    233       1    1   0.000000  8.131728e+00  4.596194e+00  3.875000e+01  # Cw homo_wall
    234       1    1   0.000000  1.166726e+01  4.596194e+00  3.875000e+01  # Cw homo_wall
    235       1    1   0.000000  1.520280e+01  4.596194e+00  3.875000e+01  # Cw homo_wall
    236       1    1   0.000000  1.873833e+01  4.596194e+00  3.875000e+01  # Cw homo_wall
    237       1    1   0.000000  2.227386e+01  4.596194e+00  3.875000e+01  # Cw homo_wall
    238       1    1   0.000000  2.580940e+01  4.596194e+00  3.875000e+01  # Cw homo_wall
    239       1    1   0.000000  2.934493e+01  4.596194e+00  3.875000e+01  # Cw homo_wall
    240       1    1   0.000000  3.288047e+01  4.596194e+00  3.875000e+01  # Cw homo_wall
    241       1    1   0.000000 -3.429468e+01  8.131728e+00  3.875000e+01  # Cw homo_wall
    242       1    1   0.000000 -3.075915e+01  8.131728e+00  3.875000e+01  # Cw homo_wall
    243       1    1   0.000000 -2.722361e+01  8.131728e+00  3.875000e+01  # Cw homo_wall
    244       1    1   0.000000 -2.368808e+01  8.131728e+00  3.875000e+01  # Cw homo_wall
    245       1    1   0.000000 -2.015254e+01  8.131728e+00  3.875000e+01  # Cw homo_wall
    246       1    1   0.000000 -1.661701e+01  8.131728e+00  3.875000e+01  # Cw homo_wall
    247       1    1   0.000000 -1.308147e+01  8.131728e+00  3.875000e+01  # Cw homo_wall
    248       1    1   0.000000 -9.545942e+00  8.131728e+00  3.875000e+01  # Cw homo_wall
    249       1    1   0.000000 -6.010408e+00  8.131728e+00  3.875000e+01  # Cw homo_wall
    250       1    1   0.000000 -2.474874e+00  8.131728e+00  3.875000e+01  # Cw homo_wall
    251       1    1   0.000000  1.060660e+00  8.131728e+00  3.875000e+01  # Cw homo_wall
    252       1    1   0.000000  4.596194e+00  8.131728e+00  3.875000e+01  # Cw homo_wall
    253       1    1   0.000000  8.131728e+00  8.131728e+00  3.875000e+01  # Cw homo_wall
    254       1    1   0.000000  1.166726e+01  8.131728e+00  3.875000e+01  # Cw homo_wall
    255       1    1   0.000000  1.520280e+01  8.131728e+00  3.875000e+01  # Cw homo_wall
    256       1    1   0.000000  1.873833e+01  8.131728e+00  3.875000e+01  # Cw homo_wall
    257       1    1   0.000000  2.227386e+01  8.131728e+00  3.875000e+01  # Cw homo_wall
    258       1    1   0.000000  2.580940e+01  8.131728e+00  3.875000e+01  # Cw homo_wall
    259       1    1   0.000000  2.934493e+01  8.131728e+00  3.875000e+01  # Cw homo_wall
    260       1    1   0.000000  3.288047e+01  8.131728e+00  3.875000e+01  # Cw homo_wall
    261       1    1   0.000000 -3.429468e+01  1.166726e+01  3.875000e+01  # Cw homo_wall
    262       1    1   0.000000 -3.075915e+01  1.166726e+01  3.875000e+01  # Cw homo_wall
    263       1    1   0.000000 -2.722361e+01  1.166726e+01  3.875000e+01  # Cw homo_wall
    264       1    1   0.000000 -2.368808e+01  1.166726e+01  3.875000e+01  # Cw homo_wall
    265       1    1   0.000000 -2.015254e+01  1.166726e+01  3.875000e+01  # Cw homo_wall
    266       1    1   0.000000 -1.661701e+01  1.166726e+01  3.875000e+01  # Cw homo_wall
    267       1    1   0.000000 -1.308147e+01  1.166726e+01  3.875000e+01  # Cw homo_wall
    268       1    1   0.000000 -9.545942e+00  1.166726e+01  3.875000e+01  # Cw homo_wall
    269       1    1   0.000000 -6.010408e+00  1.166726e+01  3.875000e+01  # Cw homo_wall
    270       1    1   0.000000 -2.474874e+00  1.166726e+01  3.875000e+01  # Cw homo_wall
    271       1    1   0.000000  1.060660e+00  1.166726e+01  3.875000e+01  # Cw homo_wall
    272       1    1   0.000000  4.596194e+00  1.166726e+01  3.875000e+01  # Cw homo_wall
    273       1    1   0.000000  8.131728e+00  1.166726e+01  3.875000e+01  # Cw homo_wall
    274       1    1   0.000000  1.166726e+01  1.166726e+01  3.875000e+01  # Cw homo_wall
    275       1    1   0.000000  1.520280e+01  1.166726e+01  3.875000e+01  # Cw homo_wall
    276       1    1   0.000000  1.873833e+01  1.166726e+01  3.875000e+01  # Cw homo_wall
    277       1    1   0.000000  2.227386e+01  1.166726e+01  3.875000e+01  # Cw homo_wall
    278       1    1   0.000000  2.580940e+01  1.166726e+01  3.875000e+01  # Cw homo_wall
    279       1    1   0.000000  2.934493e+01  1.166726e+01  3.875000e+01  # Cw homo_wall
    280       1    1   0.000000  3.288047e+01  1.166726e+01  3.875000e+01  # Cw homo_wall
    281       1    1   0.000000 -3.429468e+01  1.520280e+01  3.875000e+01  # Cw homo_wall
    282       1    1   0.000000 -3.075915e+01  1.520280e+01  3.875000e+01  # Cw homo_wall
    283       1    1   0.000000 -2.722361e+01  1.520280e+01  3.875000e+01  # Cw homo_wall
    284       1    1   0.000000 -2.368808e+01  1.520280e+01  3.875000e+01  # Cw homo_wall
    285       1    1   0.000000 -2.015254e+01  1.520280e+01  3.875000e+01  # Cw homo_wall
    286       1    1   0.000000 -1.661701e+01  1.520280e+01  3.875000e+01  # Cw homo_wall
    287       1    1   0.000000 -1.308147e+01  1.520280e+01  3.875000e+01  # Cw homo_wall
    288       1    1   0.000000 -9.545942e+00  1.520280e+01  3.875000e+01  # Cw homo_wall
    289       1    1   0.000000 -6.010408e+00  1.520280e+01  3.875000e+01  # Cw homo_wall
    290       1    1   0.000000 -2.474874e+00  1.520280e+01  3.875000e+01  # Cw homo_wall
    291       1    1   0.000000  1.060660e+00  1.520280e+01  3.875000e+01  # Cw homo_wall
    292       1    1   0.000000  4.596194e+00  1.520280e+01  3.875000e+01  # Cw homo_wall
    293       1    1   0.000000  8.131728e+00  1.520280e+01  3.875000e+01  # Cw homo_wall
    294       1    1   0.000000  1.166726e+01  1.520280e+01  3.875000e+01  # Cw homo_wall
    295       1    1   0.000000  1.520280e+01  1.520280e+01  3.875000e+01  # Cw homo_wall
    296       1    1   0.000000  1.873833e+01  1.520280e+01  3.875000e+01  # Cw homo_wall
    297       1    1   0.000000  2.227386e+01  1.520280e+01  3.875000e+01  # Cw homo_wall
    298       1    1   0.000000  2.580940e+01  1.520280e+01  3.875000e+01  # Cw homo_wall
    299       1    1   0.000000  2.934493e+01  1.520280e+01  3.875000e+01  # Cw homo_wall
    300       1    1   0.000000  3.288047e+01  1.520280e+01  3.875000e+01  # Cw homo_wall
    301       1    1   0.000000 -3.429468e+01  1.873833e+01  3.875000e+01  # Cw homo_wall
    302       1    1   0.000000 -3.075915e+01  1.873833e+01  3.875000e+01  # Cw homo_wall
    303       1    1   0.000000 -2.722361e+01  1.873833e+01  3.875000e+01  # Cw homo_wall
    304       1    1   0.000000 -2.368808e+01  1.873833e+01  3.875000e+01  # Cw homo_wall
    305       1    1   0.000000 -2.015254e+01  1.873833e+01  3.875000e+01  # Cw homo_wall
    306       1    1   0.000000 -1.661701e+01  1.873833e+01  3.875000e+01  # Cw homo_wall
    307       1    1   0.000000 -1.308147e+01  1.873833e+01  3.875000e+01  # Cw homo_wall
    308       1    1   0.000000 -9.545942e+00  1.873833e+01  3.875000e+01  # Cw homo_wall
    309       1    1   0.000000 -6.010408e+00  1.873833e+01  3.875000e+01  # Cw homo_wall
    310       1    1   0.000000 -2.474874e+00  1.873833e+01  3.875000e+01  # Cw homo_wall
    311       1    1   0.000000  1.060660e+00  1.873833e+01  3.875000e+01  # Cw homo_wall
    312       1    1   0.000000  4.596194e+00  1.873833e+01  3.875000e+01  # Cw homo_wall
    313       1    1   0.000000  8.131728e+00  1.873833e+01  3.875000e+01  # Cw homo_wall
    314       1    1   0.000000  1.166726e+01  1.873833e+01  3.875000e+01  # Cw homo_wall
    315       1    1   0.000000  1.520280e+01  1.873833e+01  3.875000e+01  # Cw homo_wall
    316       1    1   0.000000  1.873833e+01  1.873833e+01  3.875000e+01  # Cw homo_wall
    317       1    1   0.000000  2.227386e+01  1.873833e+01  3.875000e+01  # Cw homo_wall
    318       1    1   0.000000  2.580940e+01  1.873833e+01  3.875000e+01  # Cw homo_wall
    319       1    1   0.000000  2.934493e+01  1.873833e+01  3.875000e+01  # Cw homo_wall
    320       1    1   0.000000  3.288047e+01  1.873833e+01  3.875000e+01  # Cw homo_wall
    321       1    1   0.000000 -3.429468e+01  2.227386e+01  3.875000e+01  # Cw homo_wall
    322       1    1   0.000000 -3.075915e+01  2.227386e+01  3.875000e+01  # Cw homo_wall
    323       1    1   0.000000 -2.722361e+01  2.227386e+01  3.875000e+01  # Cw homo_wall
    324       1    1   0.000000 -2.368808e+01  2.227386e+01  3.875000e+01  # Cw homo_wall
    325       1    1   0.000000 -2.015254e+01  2.227386e+01  3.875000e+01  # Cw homo_wall
    326       1    1   0.000000 -1.661701e+01  2.227386e+01  3.875000e+01  # Cw homo_wall
    327       1    1   0.000000 -1.308147e+01  2.227386e+01  3.875000e+01  # Cw homo_wall
    328       1    1   0.000000 -9.545942e+00  2.227386e+01  3.875000e+01  # Cw homo_wall