ITEM: TIMESTEP
100000
ITEM: NUMBER OF ATOMS
12600
ITEM: BOX BOUNDS pp pp pp
-2.5586461064245160e+01 2.5586461064245160e+01
-2.5586461064245160e+01 2.5586461064245160e+01
-2.5586461064245160e+01 2.5586461064245160e+01
ITEM: ATOMS id type xs ys zs
6760 10 0.110271 0.0675549 0.0823369
6757 10 0.0886495 0.087649 0.0846786
6754 10 0.0627868 0.0744349 0.0918644
6762 11 0.0865491 0.0946217 0.0646618
6758 11 0.0569364 0.0601901 0.0771483
6761 11 0.0936678 0.102607 0.0989883
6759 11 0.0636026 0.0619279 0.109087
6763 10 0.136153 0.0788578 0.0723725
6765 11 0.115508 0.059254 0.101241
6764 11 0.104997 0.0515263 0.0693381
6751 10 0.040834 0.0949367 0.0956731
6755 11 0.0426812 0.108229 0.112214
6756 11 0.0434491 0.10578 0.0775267
9784 8 0.117599 0.109648 0.177199
6767 11 0.145371 0.0872634 0.0896373
5048 8 0.0358879 0.109038 0.158154
5040 6 0.0336374 0.124979 0.172102
12544 14 0.0768888 0.0356074 0.162108
5047 8 0.0463703 0.116956 0.187175
12545 14 0.0906234 0.0664077 0.188718
12542 14 0.0783202 0.0769831 0.147283
12543 14 0.0483044 0.0653632 0.176124
12541 13 0.0730849 0.0610587 0.168769
6768 11 0.133505 0.0935774 0.0572059
9776 6 0.127257 0.121534 0.162395
9790 11 0.148058 0.135688 0.210176
9785 10 0.152409 0.151361 0.196423
9787 11 0.112847 0.153504 0.183835
6771 11 0.144547 0.0459344 0.0452919
6589 1 0.0204773 0.000955235 0.23903
6766 12 0.154215 0.056269 0.0612115
9783 8 0.110095 0.122311 0.149803
9782 9 0.131441 0.148901 0.174521
8138 11 0.0333294 0.030854 0.0366219
9786 11 0.131922 0.164325 0.159838
6769 11 0.159974 0.0412488 0.0751735
8133 11 0.0776518 0.0508031 0.0302726
7916 11 0.14811 0.147315 0.0491333
6605 11 0.070492 0.0197781 0.214311
4348 11 0.0888727 0.00640121 0.0411914
5050 11 0.0667428 0.142789 0.151219
5046 9 0.0485158 0.149023 0.160309
5053 11 0.0658889 0.160635 0.196125
9771 1 0.15028 0.106943 0.153004
6748 9 0.0139627 0.0802242 0.0939718
6752 11 0.0134352 0.0664205 0.110185
9775 5 0.139895 0.0709271 0.170223
9770 2 0.154152 0.0818381 0.159127
4339 7 0.0363946 0.0218295 0.128852
6590 3 0.0154142 0.0282342 0.241756
6753 11 0.0129126 0.0678651 0.0766554
6595 7 0.0287373 0.0420879 0.233039
5704 4 0.0648169 0.148643 0.0320344
5710 8 0.0681626 0.161077 0.0490022
6600 9 0.0685699 0.00342746 0.227827
5709 8 0.0825028 0.136809 0.0311053
6610 11 0.117945 0.0216251 0.237179
4334 3 0.0446819 0.00874604 0.114515
7911 11 0.152552 0.16319 0.104495
5051 11 0.0368376 0.158066 0.144961
7918 11 0.117517 0.146073 0.0693616
11649 14 0.154819 0.0018404 0.110612
8132 10 0.0471682 0.0581786 0.00450601
8135 12 0.0301057 0.0362777 0.0162774
5711 8 0.0475646 0.136812 0.0360449
937 8 0.134892 0.105111 0.22411
8137 11 0.0420308 0.075901 0.0151468
4333 3 0.069721 0.0018637 0.11064
938 8 0.121898 0.0753914 0.232697
936 8 0.098474 0.100812 0.22821
4338 7 0.0872564 0.00816852 0.120548
7913 12 0.130712 0.156997 0.0567015
8140 11 0.00977165 0.0424952 0.0150239
5035 1 0.0056821 0.129262 0.179746
7917 11 0.117874 0.160574 0.0400848
11377 14 0.0457712 0.162633 0.0895815
5699 1 0.0588661 0.164699 0.00778442
11993 14 0.0468486 0.115946 0.238318
8127 11 0.124631 0.078053 0.0209868
8131 11 0.0824508 0.0980558 0.00748298
931 4 0.118383 0.0963373 0.234317
8139 11 0.0340077 0.0177328 0.006553
4351 11 0.137725 0.00138798 0.0433941
8129 10 0.0759151 0.0548971 0.00944171
8123 10 0.118851 0.0767229 0.000528974
5798 10 0.326891 0.0795301 0.00905563
9789 11 0.171922 0.149523 0.188083
11204 14 0.184961 0.0885337 0.217847
9796 11 0.168657 0.166035 0.249571
6770 11 0.172615 0.0636938 0.0534638
11202 14 0.217023 0.0574964 0.21669
12319 14 0.280395 0.0183612 0.159044
9774 4 0.188932 0.0478725 0.156808
9781 8 0.194966 0.0464823 0.177188
9780 8 0.20574 0.0429818 0.144671
9769 1 0.177726 0.0738942 0.151287
9779 8 0.173853 0.0329163 0.155185
5797 11 0.301463 0.0990683 0.0507268
9772 3 0.172932 0.116132 0.141472
9777 7 0.175949 0.136548 0.137058
9773 3 0.190231 0.0958873 0.141583
9778 7 0.210379 0.0973585 0.135477
8534 11 0.208991 0.123612 0.0741934
8535 11 0.224676 0.115429 0.044247
8530 10 0.22763 0.123102 0.0638964
8525 8 0.248359 0.0563495 0.106885
8526 8 0.266241 0.0533924 0.0788936
8527 10 0.244101 0.101067 0.0762587
8524 9 0.230803 0.0743728 0.0717932
8518 6 0.24613 0.0533874 0.0859097
8528 11 0.230227 0.0692273 0.0511317
8513 1 0.237075 0.026371 0.0854591
8531 11 0.262476 0.100471 0.0655007
8529 11 0.211884 0.0760177 0.0814391
8532 11 0.248866 0.104343 0.0967591
4964 4 0.232736 0.121689 0.211164
4963 3 0.276895 0.108198 0.198925
4959 1 0.260002 0.125299 0.211578
4960 2 0.272459 0.145011 0.221827
8533 10 0.242385 0.149408 0.063512
8537 11 0.262293 0.145054 0.057315
5793 11 0.322147 0.075035 0.0842874
5787 8 0.309903 0.0907836 0.136117
8538 11 0.246235 0.15409 0.0839314
4961 1 0.297875 0.141396 0.214404
4962 3 0.299943 0.118574 0.198626
5789 10 0.328489 0.094786 0.0794521
4970 8 0.22726 0.102374 0.204046
12318 14 0.304291 0.0548446 0.171557
12316 13 0.286462 0.0442462 0.153749
11201 13 0.192618 0.0631118 0.227111
5790 11 0.29347 0.113939 0.0960705
5792 10 0.322699 0.100598 0.0513596
5786 9 0.314508 0.112837 0.0992178
4969 8 0.223159 0.134411 0.197018
12573 14 0.252675 0.057136 0.00209511
4971 8 0.222183 0.123762 0.22955
5780 6 0.318426 0.109335 0.130043
12317 14 0.262761 0.0566498 0.153883
4968 7 0.270121 0.0901363 0.190364
4967 7 0.317212 0.110666 0.189423
5788 8 0.310817 0.126862 0.139457
4002 4 0.274805 0.0284246 0.223011
11839 14 0.259955 0.137407 0.137257
8517 5 0.212067 0.0278837 0.0533999
11840 14 0.218535 0.153504 0.128238
8541 11 0.230745 0.165075 0.0277489
12320 14 0.296972 0.0475586 0.128593
4009 8 0.293941 0.0195092 0.220183
5791 11 0.321204 0.132438 0.0942519
4966 6 0.317442 0.163089 0.219766
4974 8 0.332455 0.155996 0.233107
11205 14 0.171652 0.0464711 0.221069
8512 2 0.22094 0.01648 0.068783
8519 7 0.26307 0.0110059 0.112297
4980 11 0.304525 0.162238 0.164163
8514 3 0.246828 0.00591103 0.0998206
3605 8 0.184505 0.00159092 0.208243
4008 8 0.270287 0.0393203 0.205275
4357 11 0.167365 0.00299413 0.0100299
5796 11 0.325576 0.120978 0.045874
6818 7 0.239019 0.00800555 0.00514221
4003 5 0.311007 0.0682947 0.24026
8112 7 0.189296 0.136466 0.00276299
12572 14 0.209087 0.0456125 0.00721291
4965 5 0.264374 0.162861 0.229665
11836 13 0.243104 0.15816 0.140286
11837 14 0.240677 0.16397 0.166875
4993 11 0.310989 0.165683 0.0728907
4007 8 0.262184 0.0114635 0.225608
5803 11 0.306559 0.0738743 0.0119415
3997 1 0.276056 0.0453497 0.246638
12575 14 0.221279 0.0874631 0.003876
5802 11 0.328032 0.0987772 2.80122e-06
8041 8 0.380181 0.144975 0.00399262
9935 11 0.424688 0.0137415 0.249958
12241 13 0.421121 0.000456031 0.140373
9925 7 0.488126 0.0739684 0.219588
7030 11 0.373084 0.00332981 0.239525
5154 8 0.346849 0.0124429 0.206523
5799 11 0.334733 0.0629884 0.0439272
5795 10 0.33842 0.0819922 0.0350407
5800 11 0.359391 0.0849875 0.0372616
5156 8 0.34629 0.0232638 0.172291
12242 14 0.395618 0.0067379 0.145788
9917 1 0.481085 0.0165439 0.193689
5149 4 0.355013 0.0105017 0.186945
8037 6 0.481535 0.160888 0.00465136
4977 11 0.344362 0.157117 0.187199
5779 5 0.344518 0.0787265 0.166942
6842 11 0.338062 0.0358641 0.086102
9035 5 0.480979 0.0899587 0.0631159
9052 11 0.499766 0.104986 0.177583
6841 11 0.349739 0.0312644 0.118745
5775 1 0.345974 0.107113 0.136998
5774 2 0.355881 0.0908833 0.153961
5794 11 0.349674 0.0963496 0.0810202
9053 11 0.473444 0.0845834 0.165808
6837 10 0.354454 0.0293806 0.0980589
6845 11 0.383057 0.0457054 0.071507
5784 8 0.420959 0.0820676 0.158485
5785 8 0.397254 0.0818881 0.185797
5783 8 0.396202 0.0566894 0.162805
9048 10 0.484114 0.102847 0.163296
9058 11 0.461639 0.124451 0.210399
5776 3 0.365313 0.120162 0.125438
5781 7 0.361253 0.135016 0.111005
5773 1 0.381551 0.0913057 0.151048
5777 3 0.386941 0.109365 0.132242
5782 7 0.406877 0.112081 0.12587
9049 11 0.480932 0.101076 0.120987
12331 13 0.423326 0.113489 0.0718992
12332 14 0.41879 0.0868496 0.071149
5778 4 0.401436 0.0771663 0.165453
9055 11 0.448154 0.119326 0.151543
12334 14 0.436283 0.121749 0.0949087
9051 10 0.462775 0.123624 0.166424
9056 11 0.470167 0.142829 0.160928
9059 11 0.438122 0.107541 0.196064
9054 10 0.449315 0.125411 0.193052
9029 1 0.472046 0.0504244 0.0581774
12335 14 0.438899 0.118129 0.0500235
12333 14 0.399159 0.124345 0.0700564
9057 10 0.432454 0.149339 0.197442
9062 11 0.425733 0.15039 0.217627
9045 10 0.497008 0.102784 0.134856
9919 1 0.458407 0.0425136 0.216529
9034 4 0.454126 0.0513919 0.037144
9064 11 0.414851 0.153653 0.162897
6843 11 0.395351 0.0332557 0.100048
6840 12 0.379821 0.045764 0.0925601
6844 11 0.379203 0.0648305 0.102036
9039 8 0.453524 0.069991 0.0267798
9041 8 0.434138 0.0510331 0.044498
9060 12 0.40616 0.151794 0.182254
9932 8 0.42203 0.0580913 0.225521
9063 11 0.392201 0.136126 0.185908
9918 2 0.459038 0.0190269 0.206051
9924 6 0.439367 0.0519895 0.236286
9040 8 0.456576 0.036397 0.0222158
9030 2 0.483158 0.0705221 0.0710464
9033 3 0.48029 0.0267343 0.0697216
12260 14 0.373146 0.0610592 0.229465
9038 7 0.474953 0.00724575 0.0636286
8045 8 0.481519 0.141055 0.0124199
12256 13 0.371217 0.0866419 0.237551
9032 3 0.498443 0.0346546 0.0869687
12245 14 0.435109 0.0235775 0.134728
9931 8 0.445317 0.071296 0.243036
6801 11 0.476582 0.161936 0.115075
5155 8 0.37609 0.013579 0.1869
1415 7 0.392854 0.0278392 0.0130374
9920 3 0.482623 0.0553182 0.211384
9921 3 0.497408 0.0387045 0.198322
1416 7 0.410219 0.00918478 0.0568872
12258 14 0.364498 0.102301 0.216159
9923 5 0.44346 0.00568254 0.21102
1410 3 0.395744 0.00734969 0.01719
9788 10 0.152334 0.177193 0.212561
9793 11 0.153587 0.193181 0.198542
6320 11 0.0208463 0.306385 0.0730758
5049 10 0.0546634 0.169574 0.180384
5054 11 0.0354628 0.174821 0.187967
9975 11 0.000423692 0.256626 0.128602
7915 11 0.117365 0.187492 0.0812901
9792 11 0.133341 0.179628 0.221891
5708 7 0.023711 0.181691 0.0191223
7910 10 0.135445 0.182341 0.0712758
7907 10 0.15765 0.179272 0.0914916
8563 8 0.0290884 0.273767 0.00893401
11379 14 0.0714487 0.196295 0.101451
11380 14 0.0434746 0.202507 0.0711012
11378 14 0.0271972 0.19523 0.11185
5059 11 0.0977763 0.195315 0.203612
5060 11 0.0699098 0.215972 0.203075
9974 11 0.0135881 0.268281 0.100377
11376 13 0.0463143 0.189518 0.0936713
8551 3 0.0836202 0.29149 0.0311205
8548 1 0.0881631 0.265366 0.0639339
8549 2 0.069519 0.255794 0.0492137
8554 5 0.0593077 0.2375 0.0517571
8552 3 0.0954732 0.288701 0.0533389
8550 1 0.0660044 0.271088 0.0287286
8557 7 0.109627 0.301102 0.0628939
8555 6 0.0491444 0.267192 0.00606642
8553 4 0.0969732 0.255579 0.088042
8556 7 0.0853053 0.306445 0.0163243
8560 8 0.102964 0.235529 0.0840649
8558 8 0.114035 0.266305 0.094936
8559 8 0.0830015 0.254636 0.104092
9981 11 0.0321158 0.272358 0.150824
9976 10 0.0324631 0.293404 0.147563
5057 11 0.085045 0.184256 0.154485
5056 11 0.0579233 0.203914 0.157301
5052 10 0.07079 0.191298 0.168659
5055 10 0.0858646 0.20806 0.19139
5063 11 0.116142 0.221404 0.164696
5058 10 0.103025 0.229948 0.179141
5062 11 0.0888815 0.241729 0.168423
5061 10 0.11809 0.246904 0.198762
9983 11 0.0539459 0.297118 0.184332
9973 10 0.00664944 0.297728 0.134122
9979 10 0.0374197 0.305697 0.17399
9984 11 0.0224873 0.303176 0.188969
5069 11 0.131139 0.264702 0.163918
7914 11 0.13845 0.198373 0.0575772
9980 11 0.0498525 0.295982 0.135536
5066 11 0.105479 0.253497 0.214611
5068 11 0.116529 0.28624 0.187987
5064 12 0.129999 0.270115 0.184487
7909 11 0.140417 0.203507 0.122279
7904 10 0.157049 0.203135 0.108977
5067 11 0.149903 0.27429 0.190818
5065 11 0.13019 0.233233 0.209736
4857 7 0.165853 0.310698 0.0559363
7908 11 0.159755 0.222103 0.0996712
7903 11 0.164948 0.225888 0.158197
4859 8 0.152243 0.262015 0.0688949
12252 14 0.111988 0.22255 0.024001
2637 7 0.14194 0.325326 0.158271
6318 11 0.0298394 0.316458 0.0297618
6313 10 0.016171 0.329469 0.0396416
6323 11 0.0648579 0.332455 0.0711645
11407 14 0.160875 0.289848 0.115271
5703 3 0.0376783 0.178975 0.00353527
9798 11 0.161658 0.219654 0.242663
6316 10 0.0213284 0.327372 0.0694686
9970 10 0.000642625 0.274008 0.116293
2261 3 0.00837116 0.240113 0.248204
2664 11 0.00486654 0.318539 0.243063
9978 11 0.00993452 0.314575 0.121509
2260 1 0.0112108 0.213029 0.249837
8562 8 0.0455942 0.246895 0.000668853
9791 10 0.173391 0.17926 0.233559
9795 11 0.190922 0.171534 0.224248
4975 10 0.315373 0.179749 0.169584
4972 9 0.331282 0.172399 0.194205
11408 14 0.185959 0.30069 0.151539
11294 14 0.186171 0.297117 0.22162
4852 3 0.169193 0.302972 0.0365825
7902 11 0.186281 0.241677 0.134641
4856 7 0.172224 0.33294 0.00685738
7912 11 0.176574 0.177615 0.0818555
8546 11 0.228252 0.218141 0.0147462
8536 10 0.229391 0.171259 0.0480869
4973 8 0.309018 0.179347 0.230647
7905 11 0.179267 0.183456 0.138996
8547 11 0.239188 0.237964 0.0398274
4858 8 0.186274 0.258717 0.0704678
7901 10 0.181131 0.201389 0.127654
9794 10 0.179391 0.207857 0.242445
9799 11 0.191066 0.216772 0.227019
11406 13 0.180868 0.304758 0.125556
4851 3 0.172438 0.312548 0.0122899
8540 11 0.209362 0.171319 0.0553358
4860 8 0.167689 0.237767 0.0507908
11410 14 0.175984 0.331458 0.123361
7898 10 0.18302 0.224633 0.146992
7891 7 0.292817 0.222515 0.215845
4853 4 0.169603 0.25798 0.0572301
4848 1 0.171718 0.276712 0.0351663
1042 4 0.321723 0.255962 0.0242888
7742 7 0.233019 0.307339 0.181056
11838 14 0.25373 0.179444 0.128305
11409 14 0.204271 0.299292 0.111836
7888 5 0.227679 0.27016 0.234334
7906 11 0.199094 0.201809 0.116215
8545 11 0.207886 0.224484 0.0422898
4995 11 0.304087 0.183581 0.0449662
7885 3 0.258022 0.229133 0.194663
4979 11 0.30256 0.196699 0.171073
8544 11 0.239919 0.20327 0.0724419
8539 10 0.241487 0.199498 0.0515369
8542 12 0.227797 0.220394 0.0359222
9362 1 0.276155 0.294392 0.122043
9367 4 0.26331 0.269635 0.115555
12026 13 0.258882 0.327328 0.0368664
9374 8 0.253965 0.270628 0.0964393
9371 7 0.243959 0.320038 0.117072
9366 3 0.264142 0.318168 0.122952
12029 14 0.233902 0.327625 0.0278619
7900 11 0.201477 0.202349 0.177775
7896 8 0.197371 0.250568 0.19647
7895 9 0.206079 0.219831 0.16651
7897 8 0.214757 0.260355 0.17227
7899 11 0.223823 0.217234 0.155017
7889 6 0.213134 0.2429 0.184368
7884 1 0.23641 0.244577 0.199977
9373 8 0.246229 0.265173 0.127472
9372 8 0.276372 0.252816 0.115131
9363 2 0.30092 0.298518 0.127188
7890 7 0.259416 0.216931 0.177499
7886 3 0.274696 0.23319 0.214084
12540 14 0.328627 0.280431 0.209804
9368 5 0.314902 0.283075 0.130567
12027 14 0.272257 0.304998 0.0310341
9364 1 0.305444 0.323327 0.132002
4990 12 0.318894 0.180687 0.0600024
4992 11 0.303301 0.215316 0.0791019
4987 10 0.322324 0.206466 0.0754268
7737 3 0.245668 0.322196 0.189098
8543 11 0.26245 0.19896 0.0477996
7883 2 0.240449 0.25818 0.222551
7738 3 0.267625 0.318283 0.203343
4849 2 0.178883 0.270623 0.0117575
7882 1 0.264015 0.252532 0.230155
12537 14 0.313684 0.265868 0.171334
7743 7 0.278753 0.301211 0.208832
4986 11 0.315751 0.168932 0.115307
1043 5 0.327112 0.305966 0.0470073
4981 10 0.320046 0.188601 0.122265
1047 8 0.310003 0.258998 0.0418139
4985 11 0.300068 0.195905 0.123371
4854 5 0.185543 0.252756 0.00271061
11295 14 0.216991 0.318125 0.242403
1048 8 0.307239 0.249266 0.0101793
11291 13 0.191299 0.310069 0.244555
2381 8 0.499707 0.189919 0.216908
1057 11 0.404398 0.327763 0.0210956
9061 11 0.44322 0.16741 0.194091
9065 11 0.396626 0.169649 0.188887
1774 11 0.41192 0.280498 0.00382079
8044 8 0.487745 0.171868 0.0218148
7726 11 0.497174 0.262093 0.165904
6802 11 0.499555 0.174233 0.137618
4994 11 0.335517 0.175041 0.0479403
4984 10 0.337092 0.202099 0.101564
12536 13 0.335892 0.269666 0.186385
4991 11 0.333473 0.221022 0.0645871
9377 8 0.347623 0.321451 0.140879
1049 8 0.336305 0.240817 0.0277058
1037 1 0.335731 0.279276 0.0161615
1038 2 0.337097 0.302141 0.028811
4976 11 0.343574 0.188922 0.199644
9239 10 0.387972 0.329698 0.247922
7721 11 0.487453 0.307577 0.116803
4988 11 0.352827 0.188301 0.0975995
12539 14 0.353685 0.286823 0.174269
12538 14 0.347341 0.246524 0.192088
4982 11 0.348954 0.16894 0.147571
7709 8 0.375845 0.216253 0.0532987
7705 7 0.48035 0.219594 0.0525758
7706 7 0.441437 0.179602 0.0499202
9244 11 0.375009 0.314955 0.239655
6797 10 0.489349 0.178429 0.119399
6798 11 0.488346 0.217868 0.124406
1039 1 0.34899 0.320451 0.0163647
4989 11 0.342275 0.219651 0.112463
4983 11 0.345505 0.202761 0.154991
7713 10 0.487338 0.274891 0.0871192
7716 10 0.490603 0.286567 0.115274
7708 8 0.386935 0.191701 0.0699768
4978 10 0.335271 0.185237 0.148518
7707 8 0.384603 0.187389 0.0358146
7702 4 0.390513 0.200961 0.051131
6796 11 0.472155 0.200975 0.165781
7714 11 0.46283 0.305225 0.0701026
7710 9 0.461734 0.284211 0.0734058
7704 6 0.455766 0.269969 0.0470184
7712 8 0.439718 0.281347 0.0388506
7703 5 0.405007 0.251767 0.0438584
7711 8 0.473095 0.27394 0.0352864
7698 2 0.420734 0.238224 0.0476869
7697 1 0.417408 0.212565 0.0487575
11879 14 0.355775 0.293469 0.0853327
11877 14 0.396757 0.287867 0.0647524
11876 13 0.383578 0.285727 0.0885519
11880 14 0.383649 0.260062 0.0965825
11878 14 0.396748 0.301297 0.107266
6794 10 0.473359 0.20274 0.123924
7701 3 0.440731 0.200695 0.0500431
6791 10 0.458135 0.20329 0.149914
6795 11 0.44379 0.187544 0.149782
6778 5 0.413121 0.294586 0.150364
6793 11 0.425863 0.231802 0.138625
6788 10 0.442009 0.229272 0.152284
6792 11 0.454177 0.246721 0.153369
6787 8 0.397472 0.256553 0.178325
6773 2 0.427336 0.294527 0.165963
6772 1 0.442179 0.315117 0.168602
6790 11 0.417583 0.213276 0.18182
6785 9 0.430476 0.230184 0.180572
6774 1 0.430404 0.277542 0.184732
6776 3 0.45561 0.311696 0.191936
6789 11 0.444927 0.227408 0.195973
6779 6 0.415505 0.254192 0.189412
6786 8 0.410502 0.252932 0.210078
6775 3 0.445287 0.290787 0.202837
6780 7 0.448803 0.281837 0.221623
7699 1 0.445662 0.243006 0.0482862
7700 3 0.459256 0.219726 0.0518978
6799 11 0.460837 0.207748 0.107436
7715 11 0.445242 0.280721 0.0864255
6781 7 0.468347 0.326367 0.20018
9222 7 0.375844 0.22002 0.240261
7718 11 0.487159 0.253751 0.089722
7720 11 0.474284 0.279718 0.127127
11817 14 0.466772 0.236474 0.240572
11819 14 0.431841 0.20998 0.244491
6805 11 0.497994 0.18877 0.0770085
9223 7 0.390289 0.172075 0.245659
1063 11 0.453296 0.327989 0.0273841
1072 11 0.493373 0.331098 0.0764651
9684 11 0.0519945 0.492342 0.246842
411 3 0.0229235 0.499407 0.130626
3709 7 0.10136 0.448654 0.00683051
9677 10 0.0930803 0.485272 0.232956
9681 11 0.107613 0.469703 0.233291
9693 11 0.0345161 0.40454 0.245933
9986 11 0.0293493 0.344505 0.160691
2644 10 0.0939966 0.366711 0.243482
9989 11 0.0338625 0.35209 0.209943
9982 10 0.0448054 0.334237 0.171149
9988 11 0.0612806 0.334722 0.211066
9987 11 0.0616867 0.337216 0.158506
2649 11 0.0761374 0.375275 0.235645
11180 14 0.0352876 0.491074 0.0499899
8995 3 0.120188 0.496398 0.113113
6321 11 0.00341075 0.3339 0.0789579
2648 11 0.098205 0.34947 0.231703
422 8 0.0303127 0.481219 0.180426
423 8 0.0620311 0.485501 0.177742
9985 12 0.0506374 0.347417 0.197677
6324 11 0.0518071 0.333437 0.101673
2635 6 0.121681 0.39511 0.212064
2636 7 0.14587 0.343018 0.207458
9990 11 0.0616564 0.365347 0.194394
11178 14 0.0514092 0.456379 0.0734325
6317 11 0.0185994 0.349346 0.0323824
9688 11 0.0581501 0.44319 0.227264
2640 8 0.0956495 0.346574 0.121556
8994 1 0.144591 0.489848 0.105397
9916 11 0.126847 0.474241 0.187489
11182 14 0.104877 0.345677 0.0242483
9911 12 0.146149 0.475988 0.196326
9001 7 0.0839649 0.472694 0.116121
8996 3 0.104494 0.474977 0.111787
6326 11 0.0327383 0.38102 0.0929954
11184 14 0.121479 0.345739 0.0658351
6322 12 0.0471542 0.370404 0.081455
6327 11 0.0477698 0.378317 0.0616884
6325 11 0.0649535 0.376304 0.0915585
2639 8 0.130496 0.353484 0.11284
6319 10 0.0477577 0.339573 0.0816822
11183 14 0.10716 0.382353 0.0475944
2632 3 0.134005 0.342957 0.166734
11181 13 0.118829 0.359289 0.0427971
8993 2 0.142269 0.467729 0.0945788
11176 13 0.0563693 0.471441 0.0513304
8997 4 0.107791 0.431242 0.091233
9004 8 0.123358 0.417447 0.0866445
8992 1 0.119831 0.45669 0.0998179
9002 8 0.0975669 0.422625 0.107814
9003 8 0.0939756 0.431752 0.0750289
2633 4 0.113261 0.358206 0.12443
11424 14 0.0807642 0.437788 0.149714
11422 14 0.0595737 0.402253 0.137107
11421 13 0.058342 0.423886 0.153686
11423 14 0.0564936 0.416193 0.179838
11425 14 0.0369361 0.438944 0.146878
2634 5 0.103421 0.39779 0.162165
2628 1 0.120956 0.361256 0.151529
2629 2 0.1163 0.38199 0.167633
2630 1 0.125126 0.376667 0.190877
11177 14 0.056443 0.456186 0.0286004
2631 3 0.13547 0.351635 0.19124
2638 8 0.10904 0.3758 0.113191
8998 5 0.157163 0.457659 0.0835253
3705 3 0.14437 0.450872 0.0115511
9909 11 0.162614 0.424559 0.177734
2643 8 0.10498 0.408037 0.209293
9905 10 0.162533 0.441331 0.164605
9910 11 0.142604 0.44419 0.157647
2642 8 0.137594 0.408874 0.208744
3701 1 0.162666 0.433565 0.00138273
3710 7 0.147997 0.468929 0.0218581
11185 14 0.143386 0.363723 0.0328395
9904 11 0.156603 0.418786 0.116496
11179 14 0.0795893 0.484644 0.0545456
9915 11 0.145971 0.463963 0.213906
9914 11 0.149503 0.496212 0.202107
2641 9 0.119353 0.384789 0.240234
2645 11 0.137274 0.374635 0.245658
415 6 0.0440458 0.496598 0.175079
9682 11 0.0886012 0.487293 0.21223
9683 10 0.0609557 0.451095 0.246843
416 7 0.00412613 0.49142 0.135944
3704 3 0.120693 0.440308 0.00541402
9680 10 0.0686371 0.479304 0.249436
9690 11 0.020563 0.452909 0.246661
7769 11 0.252619 0.499835 0.23435
7767 11 0.197451 0.478365 0.244105
3712 8 0.192183 0.458011 0.00618586
9365 3 0.283244 0.336148 0.126732
12030 14 0.258352 0.334481 0.0631707
7734 1 0.275073 0.342606 0.209924
7739 4 0.295506 0.349937 0.228388
7746 8 0.300925 0.335988 0.243545
9370 7 0.281976 0.357173 0.125404
9369 6 0.331101 0.334806 0.139339
9376 8 0.329046 0.343113 0.158845
11292 14 0.175028 0.333557 0.247112
7745 8 0.292366 0.366647 0.241219
9890 8 0.282223 0.410538 0.00703326
7761 11 0.190955 0.439243 0.221524
9908 10 0.167383 0.469176 0.176292
9912 11 0.167209 0.484421 0.161417
4310 11 0.211171 0.492815 0.149087
7744 8 0.31325 0.35183 0.216758
4306 9 0.231852 0.4978 0.150162
11849 14 0.239808 0.463474 0.0784996
9007 8 0.1816 0.499064 0.0978586
3713 8 0.200309 0.424102 0.015778
12028 14 0.270627 0.347595 0.02396
2923 11 0.296883 0.426331 0.24599
7756 10 0.210564 0.432245 0.22602
7763 11 0.228533 0.466106 0.204617
7754 11 0.213642 0.37564 0.226432
9903 11 0.171556 0.396208 0.138418
9913 11 0.186625 0.470744 0.185293
7749 8 0.213358 0.346203 0.155538
7752 11 0.189143 0.347627 0.197812
7736 1 0.242419 0.348878 0.183957
9894 8 0.202743 0.356178 0.0615197
9895 8 0.218376 0.357637 0.091231
4302 7 0.332986 0.496155 0.164292
4296 3 0.290007 0.49211 0.161004
9898 11 0.175326 0.370477 0.0950982
9899 10 0.174534 0.413868 0.126888
9907 11 0.202576 0.43384 0.149817
7741 6 0.219622 0.36036 0.170168
7747 9 0.198372 0.365213 0.190114
7735 2 0.261555 0.359602 0.196614
7740 5 0.265248 0.380099 0.200028
7751 11 0.182783 0.373271 0.178041
11850 14 0.238628 0.469642 0.0345466
4300 6 0.248821 0.473482 0.142902
7748 8 0.224547 0.378761 0.160637
4307 8 0.240953 0.466577 0.124351
4295 1 0.276274 0.479661 0.141812
4308 8 0.246363 0.457055 0.156236
4297 3 0.315837 0.490156 0.153553
7750 10 0.201639 0.386359 0.212477
9902 10 0.182727 0.437248 0.142881
9885 4 0.265072 0.421536 0.0132462
11847 14 0.200908 0.461325 0.057995
9906 11 0.184885 0.455303 0.131787
9897 11 0.177473 0.395012 0.071029
9380 11 0.327627 0.370896 0.11718
9900 11 0.200483 0.425837 0.0983655
7757 11 0.208733 0.418207 0.186522
9886 5 0.220619 0.386595 0.0257756
7758 11 0.236935 0.409284 0.203657
7753 10 0.215748 0.410813 0.205225
4299 5 0.286449 0.464835 0.104194
4294 2 0.292086 0.47406 0.122321
9901 11 0.210091 0.400702 0.120709
9888 7 0.253822 0.396443 0.100084
9880 1 0.254954 0.409613 0.0372599
9889 7 0.280202 0.427209 0.0617923
9884 3 0.264723 0.412862 0.0618004
9881 2 0.234407 0.393467 0.0402012
9896 10 0.194935 0.407303 0.107276
9883 3 0.250447 0.398661 0.079369
9893 9 0.188049 0.385432 0.0868427
9887 6 0.210822 0.369973 0.0755957
9882 1 0.231058 0.38722 0.0657426
11846 13 0.224882 0.474015 0.0581033
4293 1 0.316521 0.478494 0.129239
11578 14 0.273445 0.402477 0.148554
11580 14 0.312731 0.420459 0.142025
11576 13 0.296133 0.409117 0.159895
11577 14 0.307612 0.386202 0.16881
11579 14 0.291977 0.426634 0.179695
7764 11 0.247107 0.449319 0.224892
3706 4 0.190738 0.437184 0.00195896
7759 10 0.227081 0.456449 0.223547
7755 11 0.18307 0.391075 0.221786
11333 14 0.324133 0.455727 0.0455388
7760 11 0.210228 0.424702 0.245937
7762 10 0.21873 0.47744 0.243936
11335 14 0.32813 0.445001 0.00272382
9892 8 0.271649 0.441139 0.0183613
1051 8 0.337707 0.361958 0.0201598
11332 14 0.338945 0.414562 0.0339663
9387 10 0.422655 0.416931 0.103816
4067 11 0.342662 0.475903 0.233712
4062 10 0.336185 0.491251 0.246985
11509 14 0.497672 0.371625 0.137518
6782 8 0.460409 0.346805 0.147765
1073 11 0.489207 0.365353 0.074613
1050 9 0.379458 0.361132 0.0167502
9383 11 0.370218 0.369992 0.145457
9395 11 0.439005 0.430205 0.140819
9379 11 0.342668 0.345574 0.0994208
6893 8 0.401337 0.475793 0.0714427
6895 8 0.427478 0.462634 0.0535581
6122 10 0.471489 0.482414 0.200038
9386 11 0.377666 0.384846 0.0897366
9398 11 0.465019 0.459153 0.0945541
9393 12 0.451362 0.458051 0.110863
9394 11 0.459978 0.415395 0.119673
1056 10 0.429907 0.361282 0.018644
1055 11 0.379391 0.381626 0.022556
6888 4 0.414502 0.479455 0.0551039
4298 4 0.339645 0.476076 0.110958
4305 8 0.339242 0.456945 0.101602
1053 10 0.403806 0.347746 0.0284442
9375 9 0.340813 0.354246 0.118787
4304 8 0.358269 0.477787 0.121152
9385 11 0.368107 0.402163 0.11836
11331 13 0.338821 0.441473 0.0271727
6140 11 0.348877 0.417487 0.206164
1052 8 0.354027 0.34632 0.046249
1067 11 0.481447 0.359769 0.00188706
6133 11 0.426997 0.469008 0.219061
6892 7 0.468819 0.493451 0.0479892
9247 11 0.417076 0.356076 0.234075
5510 11 0.442846 0.417173 0.248177
6129 11 0.45818 0.448691 0.18299
1060 11 0.42833 0.382186 0.0224168
9396 11 0.460818 0.470055 0.125702
6128 10 0.425851 0.470214 0.197826
9389 11 0.408281 0.399283 0.138823
6127 11 0.472206 0.476078 0.220361
9397 11 0.434056 0.469013 0.10503
9245 12 0.380622 0.364282 0.210935
9242 10 0.400252 0.346151 0.225581
6132 11 0.418571 0.490204 0.196784
1059 10 0.453859 0.348804 0.031871
1064 11 0.449958 0.351849 0.0525886
6139 11 0.387749 0.433203 0.223527
9384 10 0.408792 0.393397 0.118359
6135 11 0.415377 0.429474 0.182773
9390 10 0.444265 0.429766 0.120183
1066 11 0.480443 0.381206 0.0266383
6138 11 0.376965 0.463251 0.208494
6784 8 0.431194 0.352292 0.1648
1044 6 0.35316 0.348135 0.0250439
4303 8 0.339142 0.490871 0.0956428
6142 11 0.350292 0.437747 0.178022
6141 11 0.368557 0.409287 0.180596
6400 11 0.483361 0.424498 0.0607814
9250 11 0.372703 0.37869 0.224477
6137 12 0.361848 0.426191 0.191684
9249 11 0.387949 0.376683 0.195244
6136 11 0.399734 0.455125 0.167986
11508 14 0.482836 0.378667 0.178081
9382 11 0.378966 0.346721 0.11996
6134 10 0.383108 0.443115 0.205254
6125 10 0.452293 0.469152 0.183612
6777 4 0.44159 0.338151 0.152731
9248 11 0.364221 0.352487 0.204184
6783 8 0.42946 0.336243 0.135326
1058 11 0.405041 0.346662 0.0496811
9246 11 0.409112 0.334112 0.210405
9388 11 0.421169 0.376364 0.115137
9381 10 0.380305 0.386415 0.110814
6131 10 0.407205 0.448712 0.186874
1062 10 0.480533 0.360191 0.0231636
11334 14 0.364437 0.449161 0.0286483
9378 10 0.367132 0.363582 0.12538
9392 11 0.430536 0.410794 0.0850033
6130 11 0.453497 0.479646 0.165115
6894 8 0.402822 0.48205 0.0374819
9391 11 0.409428 0.433276 0.100409
926 1 0.12286 0.106141 0.261927
932 5 0.0842877 0.111913 0.270203
927 2 0.10409 0.112782 0.27745
930 3 0.146698 0.109071 0.273886
929 3 0.140377 0.119935 0.297291
928 1 0.113344 0.120372 0.30029
940 8 0.0774056 0.135888 0.31492
12523 14 0.0503898 0.0921186 0.40908
3575 10 0.0504921 0.0497684 0.319444
933 6 0.0975187 0.132367 0.320984
3571 11 0.105749 0.0286889 0.379718
941 8 0.0932965 0.116373 0.334404
3573 11 0.10448 0.0552763 0.326328
3566 9 0.114945 0.035089 0.361603
3559 5 0.105324 0.0644311 0.415091
3560 6 0.138847 0.0505481 0.372593
3555 1 0.131759 0.07622 0.384675
3554 2 0.116473 0.0794713 0.405349
12521 13 0.0439556 0.110546 0.389298
3569 10 0.0964285 0.051451 0.345674
3553 1 0.117232 0.103043 0.415206
3557 3 0.133277 0.117642 0.3974
3568 8 0.150349 0.0382009 0.385592
3572 10 0.0702354 0.0353731 0.338968
3574 11 0.0890527 0.0698382 0.353498
3570 11 0.118027 0.0160552 0.352552
12524 14 0.0335775 0.0971819 0.368084
12525 14 0.0656954 0.126333 0.384094
3578 10 0.0293416 0.0303908 0.309914
3581 10 0.0208272 0.0109642 0.330404
3585 11 0.0146766 0.0217092 0.347736
6616 11 0.159116 0.0334928 0.273643
3556 3 0.142792 0.100543 0.380292
3579 11 0.0606107 0.0600236 0.303755
3580 11 0.0400141 0.0661992 0.328043
11995 14 0.00570896 0.118432 0.253472
3558 4 0.104747 0.112749 0.439492
12522 14 0.0232131 0.125923 0.398687
3583 11 0.0129511 0.0417451 0.302422
3582 11 0.0384012 0.0212696 0.292931
3576 11 0.0600324 0.0320116 0.357361
3563 8 0.118996 0.122727 0.451783
3564 8 0.0870413 0.124358 0.43716
2527 8 0.0253417 0.0320356 0.474386
2523 5 0.0190352 0.0405977 0.403162
2522 4 0.0305067 0.0454442 0.458663
2529 8 0.0360113 0.0641347 0.467269
3562 7 0.138039 0.137599 0.402347
11549 14 0.111825 0.0156311 0.424498
2528 8 0.049456 0.039842 0.45071
11548 14 0.122909 0.0343219 0.463322
3567 8 0.149955 0.0551794 0.355018
306 7 0.0412364 0.119838 0.466958
301 3 0.0244878 0.132591 0.465454
939 9 0.105228 0.157864 0.334933
944 11 0.101861 0.157549 0.355964
3565 8 0.0993601 0.0962976 0.451903
947 11 0.145484 0.15913 0.340902
934 7 0.153827 0.125219 0.312673
11992 14 0.0372161 0.131673 0.279318
11374 14 0.0808786 0.14317 0.485548
6614 11 0.115253 0.0404953 0.284582
3577 11 0.0772388 0.0168072 0.331224
6615 10 0.159141 0.0120262 0.310962
6612 10 0.150017 0.0168345 0.283308
11991 13 0.0306638 0.113656 0.260197
297 1 0.0241291 0.157514 0.453909
1341 7 0.0891652 0.0438582 0.498566
935 7 0.165015 0.102656 0.265594
11547 14 0.154268 0.0180553 0.436578
6609 10 0.120531 0.0200756 0.281601
3561 7 0.158645 0.103114 0.366599
4230 8 0.00702181 0.0929558 0.320747
6620 11 0.148224 0.0232657 0.325391
309 8 0.0536001 0.154372 0.42569
6613 11 0.108837 0.0101004 0.296347
1337 3 0.0759789 0.00416172 0.49088