LAMMPS data file via write_data, version 23 Jun 2022, timestep = 0

12600 atoms
14 atom types
12300 bonds
9 bond types
22500 angles
14 angle types
30000 dihedrals
23 dihedral types

-25.61705330132426 25.61705330132426 xlo xhi
-25.61705330132426 25.61705330132426 ylo yhi
-25.61705330132426 25.61705330132426 zlo zhi

Masses

1 14.007
2 12.011
3 12.011
4 12.011
5 1.008
6 12.011
7 1.008
8 1.008
9 12.011
10 12.011
11 1.008
12 12.011
13 10.811
14 18.998

Bond Coeffs # harmonic

1 477.055 1.315
2 427.103 1.378
3 520.076 1.341
4 336.998 1.466
5 339.986 1.08
6 339.986 1.08
7 339.986 1.09
8 267.925 1.529
9 386.592 1.394

Angle Coeffs # harmonic

1 70.0048 126.4
2 70.0048 108
3 70.0048 125.6
4 70.0048 109.8
5 35.0024 125.1
6 70.0048 107.1
7 35.0024 122
8 35.0024 130.9
9 37.5 110.7
10 32.9947 107.8
11 58.3533 112.7
12 37.5 110.7
13 58.3533 112.7
14 80.0072 109.5

Dihedral Coeffs # opls

1 0 4.65105 0 0
2 0 4.65105 0 0
3 0 4.65105 0 0
4 0 4.65105 0 0
5 0 3 0 0
6 0 3 0 0
7 0 3 0 0
8 0 3 0 0
9 0 10.7505 0 0
10 0 10.7505 0 0
11 0 10.7505 0 0
12 0 0 0 0
13 0 0 0.124044 0
14 -1.25934 0 0 0
15 -1.70973 1.45947 0.189747 0
16 -1.78769 0.756262 -0.287428 0
17 0 0 0.3 0
18 0 0 0.087715 0
19 0 0 0.3 0
20 1.3 -0.05 0.2 0
21 0 2 0 0
22 0 2.2 0 0
23 0 2.2 0 0

Atoms # full

6760 183 10 -0.096 -19.142226980248036 -22.117452069767882 -22.129092509718816 1 0 0
6757 183 10 -0.096 -20.265845253276023 -21.078397810918638 -21.985849309766007 1 0 0
6754 183 10 -0.096 -21.35900809321519 -21.518608540468062 -21.00077671704924 1 0 0
6762 183 11 0.048 -20.715855690743837 -20.895547702185635 -22.96174268871907 1 0 0
6758 183 11 0.048 -21.857257447052707 -22.402835640867494 -21.39752274548004 1 0 0
6761 183 11 0.048 -19.847075594482224 -20.126067726925278 -21.66165882896914 1 0 0
6759 183 11 0.048 -20.90642266172868 -21.821742683384905 -20.056139847151208 1 0 0
6763 183 10 -0.096 -18.10876055501372 -21.76398598298061 -23.21241479455057 1 0 0
6765 183 11 0.048 -18.639090269318196 -22.256826661105034 -21.171255535367937 1 0 0
6764 183 11 0.048 -19.5826048265174 -23.08458708876961 -22.376195483009706 1 0 0
6768 183 11 0.048 -17.43931873985828 -22.61543993291945 -23.344296971260754 1 0 0
6751 183 10 -0.096 -22.39111761348095 -20.411038151918557 -20.74043547967971 1 0 0
6755 183 11 0.048 -21.889482543930225 -19.56903272561397 -20.265297266269165 1 0 0
6756 183 11 0.048 -22.77330449208234 -20.040618641003785 -21.690463820178685 1 0 0
6748 183 9 0.008 -23.560541900682026 -20.873236107768612 -19.856086334377114 1 0 0
6752 183 11 0.048 -23.16278238655201 -21.2317199340712 -18.905884517902283 1 0 0
8134 220 11 0.048 -22.608726282503376 -19.653843791009106 -23.962953764520844 0 0 1
9784 265 8 0.104 -19.57300352315974 -19.679076551442282 -19.075704855258866 0 0 0
6767 183 11 0.048 -18.610869612353746 -21.626283213179036 -24.17078156870051 1 0 0
9771 265 1 0.12 -18.118132426179915 -21.047314587570572 -18.392325295007932 0 0 0
9776 265 6 -0.136 -18.489325605496592 -19.74284246426368 -18.96806783038766 0 0 0
4330 118 1 0.12 -23.777249438263755 -24.772730541598648 -20.051611181454163 1 0 0
9783 265 8 0.104 -18.08542205267829 -19.66281146055108 -19.978132824706314 0 0 0
6766 183 12 -0.144 -17.262272670680364 -20.52491422459235 -22.88704234729452 1 0 0
6753 183 11 0.048 -24.048562674241172 -21.72827703482356 -20.324475987813205 1 0 0
4335 118 4 -0.136 -24.562477128349208 -24.29592852182188 -18.905331250620332 1 0 0
5048 137 8 0.104 -22.10933871191471 -18.41271039625486 -17.184240392321794 0 0 0
6771 183 11 0.048 -17.870284807146128 -19.62139978157184 -22.839012585760628 1 0 0
9770 265 2 -0.08800000000000001 -18.92163657161955 -21.88577975145029 -17.770888063629425 0 0 0
9769 265 1 0.12 -18.22423422061306 -22.848861734666553 -17.20786382971735 0 0 0
9775 265 5 0.168 -19.99273284031117 -21.77483548166743 -17.68719676266814 0 0 0
9787 265 11 0.048 -18.384128433982184 -17.625003670392903 -18.55976199971627 0 0 0
1776 48 11 0.048 -4.258054625064617 -11.239158660079607 -25.064126268340473 0 0 1
8138 220 11 0.048 -23.459918421092315 -21.94685877608114 -23.10056910202045 0 0 1
9782 265 9 0.008 -17.993159705597336 -18.548867632094694 -18.1310637608063 0 0 0
4334 118 3 -0.104 -22.406249523112894 -24.902757306846954 -20.094360176764805 1 0 0
11649 410 14 -0.392 -17.171868965218337 -24.380196482900065 -20.170247289225802 0 0 0
8128 220 11 0.048 -20.025703453509948 -19.049506233496736 -24.627183397368313 0 0 1
7524 204 8 0.104 -11.433656010818348 -10.97544922923725 -25.519031014464883 0 0 1
8129 220 10 -0.096 -22.839867961508183 -19.880618215034257 -25.003058342534104 0 0 1
6743 183 7 0.168 -25.579615792472826 -20.967892893790783 -21.975048606944018 1 0 0
8135 220 12 -0.144 -23.345502975155554 -22.238786929262215 -24.143184950816174 0 0 1
4351 118 11 0.048 -22.393968145226804 -24.75808311647746 -25.29615817832575 1 0 0
8137 220 11 0.048 -24.782047015438014 -20.8034144199683 -24.82844549736262 0 0 1
9773 265 3 -0.104 -16.896408542975216 -22.638812360676813 -17.51564583339211 0 0 0
7914 214 11 0.048 -17.392520547271697 -17.00294619098098 -21.097111829679864 0 0 0
4339 118 7 0.168 -21.773173441196793 -24.621394716169757 -19.26257218243388 1 0 0
6749 183 8 0.104 -24.12745479866354 -18.979117401681233 -19.004223379348442 1 0 0
7918 214 11 0.048 -18.484656401641352 -16.304878720542842 -23.214854833636597 0 0 0
11377 356 14 -0.392 -22.39818040426884 -17.122241626306806 -19.981948822829665 1 0 0
5041 137 7 0.168 -24.72126586754295 -16.94879136677819 -17.21591696563424 0 0 0
8535 231 11 0.048 -12.227849745478501 -18.775862037651777 -25.0167624298888 0 0 1
4342 118 8 0.104 -24.216321054494106 -23.326833696018692 -18.55429048611997 1 0 0
9779 265 8 0.104 -18.33973108092412 -23.858960581543343 -15.346672443383923 0 0 0
6590 179 3 -0.104 -24.6730119702858 -24.919712550610353 -13.562138511501061 0 0 0
6595 179 7 0.168 -24.095667552124226 -24.20168409624769 -14.12994357711281 0 0 0
5040 137 6 -0.136 -22.292620543170166 -18.009444533180066 -16.187012586332163 0 0 0
12544 589 14 -0.392 -22.209103140886118 -23.248886728139748 -16.943257309799684 1 0 0
9780 265 8 0.104 -19.83304144727911 -23.880509123038568 -16.268002735782158 0 0 0
9774 265 4 -0.136 -18.748463947410087 -23.9262713313523 -16.35502524595397 0 0 0
5047 137 8 0.104 -21.640670316815534 -18.574615637682488 -15.519319101086586 0 0 0
12545 589 14 -0.392 -21.938138744711807 -21.0900792636011 -16.313507207188398 1 0 0
12542 589 14 -0.392 -23.863535405113385 -22.18576543670552 -15.808691143772243 1 0 0
12543 589 14 -0.392 -21.930211151729182 -22.73631983537233 -14.745555278363101 1 0 0
12541 589 13 0.768 -22.48594545680693 -22.31544317075847 -15.950005049338149 1 0 0
5039 137 5 0.168 -23.50556793201309 -19.690610735016147 -14.264956122490092 0 0 0
9790 265 11 0.048 -19.457114245147505 -18.74450338253292 -16.554573480301492 0 0 0
5034 137 2 -0.08800000000000001 -24.13666577776193 -19.07915862639946 -14.896483979335084 0 0 0
5035 137 1 0.12 -23.700464585764504 -18.26201233930196 -15.832393950501626 0 0 0
9785 265 10 -0.096 -18.376665006068496 -18.636025770954774 -16.642939212893438 0 0 0
9791 265 10 -0.096 -18.280015532658634 -17.561615053872423 -14.340594643752063 0 0 0
9795 265 11 0.048 -17.82299930497804 -18.46071721709283 -13.923493289209281 0 0 0
9781 265 8 0.104 -18.502794540241084 -24.906246125316343 -16.762734043498966 0 0 0
9789 265 11 0.048 -17.941873784311262 -19.53297306019352 -16.199478760631383 0 0 0
9796 265 11 0.048 -19.357238326639877 -17.710610856417823 -14.26040022710751 0 0 0
9788 265 10 -0.096 -17.91020799954593 -17.42405373423406 -15.827096771342969 0 0 0
11646 410 13 0.768 -17.99005010118499 -25.455409361239376 -19.837053826254458 0 0 0
5036 137 3 -0.104 -24.80194299510061 -17.665694207474225 -16.409393591702848 0 0 0
4346 118 10 -0.096 -21.612374112891114 -25.29317580009827 -24.75572357611552 1 0 0
8123 220 10 -0.096 -20.54302042431491 -18.896937176207427 -25.57526099601561 0 0 1
6605 179 11 0.048 -22.273863117147343 -25.43909966192712 -15.06200849332295 0 0 0
9923 269 5 0.168 -3.611548431096996 -25.330358427869335 -15.93994662907447 0 0 0
4331 118 2 -0.08800000000000001 -24.255271906392583 -25.206667110829038 -21.196869074768514 1 0 0
6127 166 11 0.048 -0.17825194415860446 -2.9503056297301624 -16.30602365824293 0 0 0
6742 183 6 -0.136 -24.608191519210155 -19.778830887118165 -19.56974002545009 1 0 0
4341 118 8 0.104 -24.48179588324295 -24.984305834941058 -18.06472120849845 1 0 0
8133 220 11 0.048 -23.38336381149355 -19.01606194409313 -25.384690266545547 0 0 1
4350 118 11 0.048 -21.252492823308057 -24.62480699908228 -23.973185256601674 1 0 0
11650 410 14 -0.392 -19.21863645025326 -24.98425533992414 -19.385205807891936 0 0 0
11333 347 14 -0.392 -8.53474343231666 -5.469038130117773 -25.43076955634631 0 0 0
9019 244 11 0.048 -16.508262542645404 -0.6015537873981889 -23.891736790443577 0 0 1
9033 245 3 -0.104 -0.7120453743174806 -25.52379392734535 -21.967279354782537 0 1 0
8127 220 11 0.048 -21.086811652230505 -17.958796865372964 -25.46198379707097 0 0 1
6610 179 11 0.048 -20.51205033024663 -24.974378856196157 -13.395517319286991 0 0 0
6770 183 11 0.048 -16.748039318126015 -20.63674366069833 -21.932207253125966 1 0 0
9772 265 3 -0.104 -16.829571469931388 -21.515879767480918 -18.246257312798818 0 0 0
6769 183 11 0.048 -16.503409840402036 -20.365521577742843 -23.65350862136062 1 0 0
9777 265 7 0.168 -15.98212550206319 -20.992448658509797 -18.668385500542026 0 0 0
8530 231 10 -0.096 -13.219255136425382 -18.59330515662116 -24.602820713204302 0 0 1
8525 231 8 0.104 -14.33327494001043 -21.130652022212914 -21.504291740813866 0 0 1
8526 231 8 0.104 -12.613947363101428 -21.31163294626212 -21.36146584531091 0 0 1
8527 231 10 -0.096 -13.367460844131058 -19.290559008462925 -23.24000202829275 0 0 1
8524 231 9 0.008 -13.275283925905052 -20.819860105883023 -23.35868484911534 0 0 1
8518 231 6 -0.136 -13.459548634918995 -21.541733930277886 -22.011574059192647 0 0 1
11836 448 13 0.768 -13.726555095753387 -18.5712326593812 -19.080692988827103 0 0 1
5787 157 8 0.104 -10.415644341351241 -20.336184890367395 -20.059983436694015 0 1 1
8528 231 11 0.048 -12.311769024876154 -21.09135300172324 -23.792825169669193 0 0 1
8513 231 1 0.12 -13.612830020433032 -23.00858368046686 -22.110251985601494 0 0 1
5790 157 11 0.048 -10.645856456736576 -18.29576396861422 -21.368168110731222 0 1 1
5780 157 6 -0.136 -9.666295994165568 -19.553967569679727 -19.923348731690623 0 1 1
8531 231 11 0.048 -12.60638255379761 -18.92931084197442 -22.54905546692796 0 0 1
8529 231 11 0.048 -14.038602937921464 -21.165829804566908 -24.05764317221572 0 0 1
8532 231 11 0.048 -14.32926668665911 -19.0239580026754 -22.79889027944365 0 0 1
5793 157 11 0.048 -9.750354129703112 -20.308511575836018 -22.61045283218754 0 1 1
8519 231 7 0.168 -12.790294269206356 -23.422549358429976 -24.072059744291007 0 0 1
8514 231 3 -0.104 -13.241815319455561 -23.814650205114052 -23.171489557418248 0 0 1
5788 157 8 0.104 -10.033249728821058 -18.95331651677446 -19.090413705602284 0 1 1
5786 157 9 0.008 -9.641035765510033 -18.68157665676437 -21.192189355431015 0 1 1
8517 231 5 0.168 -14.527251819289805 -23.456968132643002 -20.23868576873411 0 0 1
11838 448 14 -0.392 -12.73607735907698 -19.54676706201447 -19.120776715423442 0 0 1
8512 231 2 -0.08800000000000001 -14.144048350998391 -23.790383013324924 -21.192092368666046 0 0 1
11837 448 14 -0.392 -13.20753011164148 -17.368347224328723 -19.551111149045717 0 0 1
5789 157 10 -0.096 -9.144366962800046 -19.416459630320997 -22.448691637541963 0 1 1
5797 157 11 0.048 -10.215004888353961 -18.283481165130755 -23.94727262647859 0 1 1
12316 544 13 0.768 -11.183651922991443 -24.152328467928772 -19.274470952551685 0 0 0
12320 544 14 -0.392 -11.034575274881533 -23.004697803521474 -20.04667984012875 0 0 0
5792 157 10 -0.096 -9.183577003454829 -18.525343603036028 -23.698913113446945 0 1 1
5791 157 11 0.048 -9.015095401711857 -17.806266712409574 -21.021202768170863 0 1 1
5803 157 11 0.048 -9.276626587886788 -21.146326585661928 -24.77364753027105 0 1 1
11840 448 14 -0.392 -14.7983281505108 -18.977424684740885 -19.87214429750202 0 0 1
12318 544 14 -0.392 -12.310148982744524 -24.01653320640971 -18.467154434062792 0 0 0
6836 185 11 0.048 -9.468347689748796 -24.297708655977527 -22.223936674584493 0 1 1
9778 265 7 0.168 -16.117797601227846 -23.302924639256645 -17.172036759166126 0 0 0
4982 135 11 0.048 -8.702448569273583 -17.50908444793578 -17.055774799891736 0 0 0
9786 265 11 0.048 -16.907896620911778 -18.48493649824118 -18.21146513428131 0 0 0
12319 544 14 -0.392 -10.055613156769386 -24.303171122047335 -18.47163790611196 0 0 0
11839 448 14 -0.392 -14.157312286910892 -18.415596427318214 -17.765552345928896 0 0 1
4971 135 8 0.104 -13.562946294130633 -21.726859179853932 -17.841606547524957 0 0 0
8533 231 10 -0.096 -13.510935921493791 -17.082591152000855 -24.561106465093467 0 0 1
4968 135 7 0.168 -10.917125893472793 -22.611207773624496 -16.78624650667307 0 0 0
4964 135 4 -0.136 -13.561960827298279 -21.647839560327817 -16.75451448771758 0 0 0
5796 157 11 0.048 -8.69684204149599 -17.575671237798907 -23.470823812975176 0 1 1
5779 157 5 0.168 -9.026148129312064 -22.0701271909348 -18.84613430710817 0 1 1
6842 185 11 0.048 -8.11146201218002 -22.220943581547846 -22.80445512335981 0 1 1
8515 231 3 -0.104 -13.560880820667604 -25.075544624060488 -22.84670353866229 0 0 1
9793 265 11 0.048 -16.82983094602055 -17.320215620947014 -15.932126897690948 0 0 0
11203 321 14 -0.392 -16.985888619221253 -21.570285544250293 -14.312909566062169 0 0 0
11204 321 14 -0.392 -14.836203565520595 -21.022500823198573 -13.785084503825997 0 0 0
4970 135 8 0.104 -14.427077314569761 -21.05106638144652 -16.463116912594096 0 0 0
11820 444 14 -0.392 -3.491685442383214 -13.609711186226372 -12.877716978316162 0 0 0
4969 135 8 0.104 -13.692356511168528 -22.649759214460456 -16.346797623060162 0 0 0
11205 321 14 -0.392 -15.357030124136799 -23.150662825247867 -14.370504297923445 0 0 0
4009 109 8 0.104 -12.03807379871022 -22.11981546848324 -13.255045612342606 0 0 0
11201 321 13 0.768 -15.812539180063329 -22.012913223750626 -13.711141445205547 0 0 0
4963 135 3 -0.104 -11.063285394395319 -21.625510308034784 -16.36792193983089 0 0 0
4959 135 1 0.12 -12.309729015100073 -21.046457982733383 -16.28275620715183 0 0 0
4962 135 3 -0.104 -10.18607518314684 -20.752758565128385 -15.854498619404843 0 0 0
4960 135 2 -0.08800000000000001 -12.169175996251806 -19.870535698747815 -15.709490643180775 0 0 0
4961 135 1 0.12 -10.897207102222437 -19.642038057261537 -15.448060249238395 0 0 0
4965 135 5 0.168 -12.986714350948004 -19.19371362530734 -15.499990937790182 0 0 0
4966 135 6 -0.136 -10.32634072899717 -18.46710182851478 -14.761479758709582 0 0 0
4973 135 8 0.104 -10.484128836746844 -18.582666773859167 -13.687718198325179 0 0 0
4967 135 7 0.168 -9.115172042992905 -20.82972600303051 -15.736162891169075 0 0 0
4974 135 8 0.104 -9.243462162765569 -18.453295466623118 -14.888181188973906 0 0 0
5153 140 7 0.168 -9.511804161090527 -24.769276806409838 -14.130677991991307 0 0 0
5148 140 3 -0.104 -8.739390270978406 -25.33487482418431 -14.63376709533507 0 0 0
4972 135 9 0.008 -10.907195239185203 -17.108205230286025 -15.199075779460609 0 0 0
3605 98 8 0.104 -16.22503529884177 -25.157824905238094 -15.584569224969636 0 0 0
6805 184 11 0.048 -0.9030070426123369 -16.751894882256476 -21.469102497008045 0 0 1
1185 33 1 0.12 -25.59006412932024 -6.78807728985065 -18.227832888779346 1 0 0
8511 231 1 0.12 -14.110852175614783 -25.04632571314583 -21.585033355379835 0 0 1
12317 544 14 -0.392 -11.330423364619914 -25.262419068177095 -20.096046724980507 0 0 0
8044 218 8 0.104 -0.5459728497434991 -17.503084843827704 -24.00157426582941 0 1 1
5799 157 11 0.048 -7.460100273511166 -19.41028816389871 -24.636472395257684 0 1 1
5775 157 1 0.12 -8.37914287573624 -20.171425052906915 -19.547775813855413 0 1 1
5795 157 10 -0.096 -8.477595609140044 -19.13820125438432 -24.917749971230926 0 1 1
6838 185 11 0.048 -7.559584057398464 -24.41647917556507 -23.854889185912526 0 1 1
6834 185 10 -0.096 -7.379997559898978 -24.249948484819843 -22.79317836402016 0 1 1
5774 157 2 -0.08800000000000001 -8.22086394599575 -21.380544782810013 -19.051909952714244 0 1 1
5794 157 11 0.048 -8.120772459793152 -19.758761754160354 -22.29476812637654 0 1 1
6841 185 11 0.048 -6.990510989215958 -22.56065162925208 -21.509887582544263 0 1 1
6837 185 10 -0.096 -7.1872730074245395 -22.7461876415879 -22.56419665919816 0 1 1
5776 157 3 -0.104 -7.121617339779639 -19.61867538129352 -19.69568356499126 0 1 1
5781 157 7 0.168 -6.95740533319099 -18.630535227926632 -20.104566028199542 0 1 1
5773 157 1 0.12 -6.942494749399752 -21.643749880911802 -18.883603933222055 0 1 1
6843 185 11 0.048 -6.212246444246913 -22.309459228139755 -24.464466083298486 0 1 1
6840 185 12 -0.144 -6.041568084924632 -22.162859576997597 -23.3978179484816 0 1 1
5777 157 3 -0.104 -6.231392247294767 -20.535247592370965 -19.29098902940191 0 1 1
5782 157 7 0.168 -5.1507502015186795 -20.495212926123273 -19.280177743668588 0 1 1
9049 245 11 0.048 -2.680177500642923 -20.286084612311264 -19.48374140926313 0 1 0
9045 245 10 -0.096 -2.0455478106509912 -20.852666107168695 -18.80073825412692 0 1 0
9035 245 5 0.168 -2.263047874443608 -23.01317330729615 -23.26390109368164 0 1 0
12331 547 13 0.768 -4.167713039036309 -18.53310948122521 -21.98025703899806 0 1 0
12332 547 14 -0.392 -4.410162014641165 -18.170489500174813 -20.658630526830603 0 1 0
12335 547 14 -0.392 -3.1922256811025904 -17.70351798523215 -22.52218415220636 0 1 0
5778 157 4 -0.136 -6.364126790446386 -22.908346368092523 -18.408157128932512 0 1 1
9030 245 2 -0.08800000000000001 -1.6756761192900564 -23.703654052020298 -22.672838831859696 0 1 0
9042 245 9 0.008 -1.7678601394523545 -22.23076420198585 -19.417989083050067 0 1 0
6844 185 11 0.048 -5.089358266532432 -22.629168867518782 -23.142595400141015 0 1 1
9031 245 1 0.12 -1.0920926211956457 -23.411586801215698 -21.528819606156198 0 1 0
9044 245 8 0.104 -1.7238118087637821 -21.409814750570206 -21.414655964332763 0 1 0
6845 185 11 0.048 -5.941951842766977 -21.091714105531235 -23.22140323809686 0 1 1
9036 245 6 -0.136 -1.1480563502868768 -22.121830920869865 -20.821283695530134 0 1 0
9055 245 11 0.048 -3.852587316611552 -19.12467303170958 -17.71624637560759 0 1 0
5785 157 8 0.104 -7.132220069181095 -23.65763732893348 -18.21155590166106 0 1 1
9046 245 11 0.048 -2.7035138276918196 -22.789350440357246 -19.483114521226852 0 1 0
9047 245 11 0.048 -1.1115722533851107 -22.80448761725436 -18.762036302384203 0 1 0
12334 547 14 -0.392 -5.339978193974292 -18.401274555281855 -22.718986213495775 0 1 0
5783 157 8 0.104 -5.686980134421514 -23.327176436179375 -19.153508237031843 0 1 1
12333 547 14 -0.392 -3.72913823545529 -19.85362527770634 -22.034451942664063 0 1 0
6801 184 11 0.048 -1.9044229830474293 -17.944935948839536 -19.440741826962398 0 0 1
9053 245 11 0.048 -3.580246889768248 -21.60925747273004 -17.487065376469342 0 1 0
9048 245 10 -0.096 -2.7281638652556994 -20.931460662019155 -17.42753077200842 0 1 0
8036 218 5 0.168 -2.9950354774484875 -19.957588276450906 -24.70716841114838 0 1 1
8031 218 2 -0.08800000000000001 -2.9448872294462705 -19.08495193417898 -25.34489408456643 0 1 1
4302 117 7 0.168 -8.779830464959371 -0.4264333821966528 -17.552598101456 0 0 0
8032 218 1 0.12 -1.9393877257653658 -18.236820485270577 -25.388766636769265 0 1 1
12245 529 14 -0.392 -4.076383856063029 -25.31982677151332 -18.674776346349073 0 1 1
5784 157 8 0.104 -5.8019073152573455 -22.764294574472128 -17.485541167330837 0 1 1
9050 245 11 0.048 -1.1147011198605898 -20.290553343351316 -18.713601475971156 0 1 0
8037 218 6 -0.136 -0.6616566084249437 -18.358383022842357 -24.669723741368518 0 1 1
4333 118 3 -0.104 -22.093022818449246 -25.426996085856697 -21.289237360955244 1 0 0
9975 270 11 0.048 -25.545555636466936 -11.89031822122391 -18.393154656540915 1 0 0
6831 185 10 -0.096 -8.546822505838756 -24.8265630145675 -21.974844602235258 0 1 1
12242 529 14 -0.392 -4.0921749509522725 -25.02620164713131 -20.931633365160998 0 1 1
3608 98 11 0.048 -13.788117583783594 -25.27068247980811 -15.759511952378137 0 0 0
4356 118 11 0.048 -19.434041881500903 -23.71725230408872 -25.58240006815069 1 0 0
9032 245 3 -0.104 -0.4875893365928962 -24.560130078807553 -21.063944638669664 0 1 0
9039 245 8 0.104 -2.8117948764509353 -25.16813130503002 -24.605595496372906 0 1 0
9051 245 10 -0.096 -3.2141927716031136 -19.55610271309964 -16.945759013175714 0 1 0
9056 245 11 0.048 -2.3661012475167036 -18.877592765028126 -16.842127241478835 0 1 0
9052 245 11 0.048 -2.041698268608064 -21.36136097049065 -16.69736535805954 0 1 0
9917 269 1 0.12 -1.516651603805922 -25.103075990648332 -16.21016857458718 0 0 0
9921 269 3 -0.104 -0.5905568120299717 -24.25580467552719 -15.640844505395126 0 0 0
2780 76 3 -0.104 -9.960500002234985 -0.4560752024900938 -23.093648330381903 0 0 1
9969 270 8 0.104 -25.38174247133265 -13.46794460654332 -21.851932162946536 1 0 0
9932 269 8 0.104 -4.578400924152709 -23.86073098451726 -14.113320223892387 0 0 0
12257 532 14 -0.392 -7.470422330672757 -20.266342233628983 -13.958690930394665 0 0 0
9920 269 3 -0.104 -1.2434009943569497 -23.49175357883419 -14.754105608207913 0 0 0
9058 245 11 0.048 -3.286688246944086 -19.9150212525412 -14.825174771203997 0 1 0
9059 245 11 0.048 -4.731681144043601 -20.418624054757196 -15.660342868815423 0 1 0
9054 245 10 -0.096 -3.981479761841251 -19.628578210198818 -15.615689967690791 0 1 0
12260 532 14 -0.392 -6.670885166007455 -22.138222679023574 -14.978539978470566 0 0 0
12256 532 13 0.768 -7.205266540802591 -21.623256911912854 -13.7998089052598 0 0 0
9057 245 10 -0.096 -4.6693198325402685 -18.30982267957088 -15.225309672031083 0 1 0
9931 269 8 0.104 -3.8321559913638557 -22.300499571916703 -14.17237452189123 0 0 0
9919 269 1 0.12 -2.57148088748584 -23.867867524191606 -14.7859530677559 0 0 0
9924 269 6 -0.136 -3.639230534409959 -23.34241502386979 -13.914242974106427 0 0 0
9065 245 11 0.048 -5.603927799345071 -17.797771685335576 -17.135629931877702 0 1 0
421 12 9 0.008 -23.610934485987677 -0.007280618141645469 -15.26533155658686 0 0 1
9918 269 2 -0.08800000000000001 -2.6907716255210263 -24.824614657638634 -15.683651229445536 0 0 0
9062 245 11 0.048 -5.00254650732767 -18.385562934826464 -14.189614783715257 0 1 0
8045 218 8 0.104 -0.6776419771994757 -19.23579199762722 -24.021209122022306 0 1 1
9060 245 12 -0.144 -5.888235344355045 -17.98251286448483 -16.100341125525432 0 1 0
9925 269 7 0.168 -0.8785301493213027 -22.711887903267925 -14.10063117821571 0 0 0
9064 245 11 0.048 -6.609439346518496 -18.800351660182997 -16.093497119801093 0 1 0
9061 245 11 0.048 -3.953072828644185 -17.487192796590687 -15.253591792176609 0 1 0
423 12 8 0.104 -21.750893428812205 -0.48575358378851563 -16.246985653854274 0 0 1
9029 245 1 0.12 -1.4657558270761026 -24.967230740258046 -22.97756562882952 0 1 0
425 12 11 0.048 -23.147416365128745 -0.21694732312580975 -14.301357185143106 0 0 1
8132 220 10 -0.096 -23.76566445338853 -21.10481912537095 -25.08261978802341 0 0 1
6839 185 11 0.048 -6.459593993702525 -24.775756684001912 -22.537415322497807 0 1 1
6741 183 5 0.168 -25.357968767156784 -17.142084967966056 -20.24467471426266 1 0 0
7917 214 11 0.048 -19.389985155135104 -15.656528978108836 -21.85219439273294 0 0 0
6310 171 10 -0.096 -25.3374571675204 -9.07867768412303 -23.109804673703298 1 0 0
6312 171 11 0.048 -25.33310937205585 -10.593587965620534 -24.65223986677659 1 0 0
11379 356 14 -0.392 -21.554329455594935 -15.159495008611687 -19.207907181820435 1 0 0
7913 214 12 -0.144 -18.432532427280147 -15.613368257996868 -22.37302786486065 0 0 0
9974 270 11 0.048 -24.41511432577891 -13.202480440445203 -18.362359220695712 1 0 0
7916 214 11 0.048 -18.318378324455313 -14.6104588688183 -22.782933819343945 0 0 0
11380 356 14 -0.392 -22.80728686398668 -15.18455001025767 -21.10955571239275 1 0 0
7911 214 11 0.048 -17.08479975706667 -14.007998499848497 -20.560750874736794 0 0 0
11378 356 14 -0.392 -23.78281977216404 -15.569529586951733 -19.098618378523987 1 0 0
8561 232 9 0.008 -21.110962493178594 -11.466548253255995 -24.324732383726957 0 0 0
8565 232 11 0.048 -21.423035015102204 -10.5910667250346 -23.756489318627747 0 0 0
11376 356 13 0.768 -22.632320055065048 -15.759544413783855 -19.85323575335785 1 0 0
8551 232 3 -0.104 -18.957489403452087 -11.6025402992035 -22.141559386140354 0 0 0
8548 232 1 0.12 -19.505580958356365 -12.191661726521302 -20.105807173802432 0 0 0
8549 232 2 -0.08800000000000001 -20.415629166143624 -12.663595088101129 -20.931133247321235 0 0 0
8554 232 5 0.168 -21.280687775353396 -13.23637869505431 -20.63595701476603 0 0 0
8552 232 3 -0.104 -18.582103301522793 -11.499465108424221 -20.858223293739922 0 0 0
8550 232 1 0.12 -20.122569083991195 -12.34075866175499 -22.172851454910393 0 0 0
8557 232 7 0.168 -17.738250967768856 -10.987882874858414 -20.413115439930046 0 0 0
8555 232 6 -0.136 -20.926436037864317 -12.657683095721666 -23.36783517209898 0 0 0
8563 232 8 0.104 -21.904292160542468 -13.032110721292579 -23.060145030304945 0 0 0
8553 232 4 -0.136 -19.481352611788893 -12.34040765248397 -18.643318054084986 0 0 0
8556 232 7 0.168 -18.501600879470978 -11.200905892067993 -23.035754635641144 0 0 0
8562 232 8 0.104 -20.456823396092872 -13.481646021376665 -23.906422421697172 0 0 0
9971 270 11 0.048 -23.62432258762289 -12.677671925770527 -20.626343039375147 1 0 0
9967 270 9 0.008 -24.570267569375694 -12.248419200128842 -20.297328055052237 1 0 0
8566 232 11 0.048 -20.153104490349723 -11.2077425235655 -24.77869733557557 0 0 0
9973 270 10 -0.096 -23.490163066665367 -11.260488017215986 -18.210759215907952 1 0 0
9977 270 11 0.048 -23.592044034990117 -10.282750851968578 -18.68227174949659 1 0 0
8560 232 8 0.104 -19.7790389149991 -11.412955137900173 -18.153833602777773 0 0 0
9972 270 11 0.048 -24.59515269458778 -11.241055137453182 -20.710656005500024 1 0 0
9970 270 10 -0.096 -24.56948998365029 -12.20013832780515 -18.7613569709722 1 0 0
8558 232 8 0.104 -20.153177838886688 -13.128884236493434 -18.302117111754463 0 0 0
8559 232 8 0.104 -18.47911020480773 -12.587885671566067 -18.29153916810477 0 0 0
7912 214 11 0.048 -18.11148933330941 -15.094686861962131 -19.65587322823746 0 0 0
7907 214 10 -0.096 -17.180380517046988 -15.039334509107094 -20.222102003492083 0 0 0
6320 171 11 0.048 -24.046379029949083 -8.891004274455582 -20.685192633960185 1 0 0
7906 214 11 0.048 -16.867471275896037 -14.555294059745263 -17.5055673507429 0 0 0
1199 33 8 0.104 -25.23870490167133 -4.808013348748192 -21.59550895546343 1 0 0
6325 171 11 0.048 -22.01185792349812 -8.393418333232876 -19.059989000492187 1 0 0
410 12 1 0.12 -23.213367020402895 -0.41329660223096937 -17.748259637191424 0 0 1
9981 270 11 0.048 -24.575846375807366 -10.705142248672061 -16.440575622170844 1 0 0
9978 270 11 0.048 -22.50356751292759 -11.637052521618955 -18.48253085940716 1 0 0
9983 270 11 0.048 -22.49012244941157 -9.228836828296123 -16.736870384850075 1 0 0
7910 214 10 -0.096 -17.271915516572424 -15.973356249735605 -21.43764636656581 0 0 0
6311 171 11 0.048 -25.15080958433621 -8.96352843498473 -25.2518780534638 1 0 0
6318 171 11 0.048 -23.61349286295922 -10.31735271641975 -22.789344223642825 1 0 0
6313 171 10 -0.096 -23.84282857832408 -9.251363019064666 -22.81239834583052 1 0 0
6316 171 10 -0.096 -23.39008607129789 -8.592861322901362 -21.503407076279895 1 0 0
6321 171 11 0.048 -23.486720715973153 -7.509704047969005 -21.595767209464913 1 0 0
9010 244 11 0.048 -16.361871935821625 -0.32128204993260995 -21.598697265548026 0 0 1
5064 137 12 -0.144 -18.39352865357957 -11.312017464417861 -12.86979280401312 0 0 0
9794 265 10 -0.096 -17.89362559041405 -16.341214584143618 -13.49161894056056 0 0 0
5709 155 8 0.104 -24.044644434563118 -15.013717398763278 -25.13497873755392 0 0 1
8140 220 11 0.048 -23.961426375288198 -23.123312738610363 -24.30443687687308 0 0 1
5051 137 11 0.048 -22.474156966873213 -15.960716172907212 -16.868112027296988 0 0 0
9976 270 10 -0.096 -23.58730984166856 -11.090245040738278 -16.690291023654286 1 0 0
5050 137 11 0.048 -20.84433120226396 -16.464365735556143 -16.53472103908025 0 0 0
9980 270 11 0.048 -23.505182414083734 -12.060506486339214 -16.199265370873796 1 0 0
9986 270 11 0.048 -22.856428913537812 -10.663722087357987 -14.066147605209569 1 0 0
2262 62 3 -0.104 -25.410890166261616 -12.60725636356645 -13.564598557556184 0 0 0
5053 137 11 0.048 -21.460375485386628 -16.505950509618188 -14.045142550877236 0 0 0
5046 137 9 0.008 -21.86841773180678 -16.530966146729128 -16.166006265219526 0 0 0
9984 270 11 0.048 -21.536037824721294 -10.60204433058979 -16.240397482599263 1 0 0
9792 265 11 0.048 -18.35030020025956 -16.513732420608232 -16.236106059707133 0 0 0
5049 137 10 -0.096 -21.95502969073343 -15.871344509899709 -14.780834331420126 0 0 0
5057 137 11 0.048 -20.25484708333673 -14.577469406777903 -15.052465760355558 0 0 0
9979 270 10 -0.096 -22.51866183295234 -10.139668548312637 -16.138863265986632 1 0 0
5054 137 11 0.048 -22.997909261458847 -15.799227297791331 -14.469210338137758 0 0 0
5056 137 11 0.048 -21.770294559581306 -13.840681756649824 -15.506888239035685 0 0 0
2379 65 8 0.104 -0.12430670207717662 -16.121421912001242 -14.612869599152042 0 0 0
3607 98 11 0.048 -14.495392448923157 -25.537912142564103 -17.327117564955948 0 0 0
5065 137 11 0.048 -18.68391424402081 -13.124998711370282 -13.98752424216592 0 0 0
5052 137 10 -0.096 -21.300247158856063 -14.481162232535437 -14.759306053013272 0 0 0
5055 137 10 -0.096 -21.391491787904215 -13.813046227573247 -13.379816594967943 0 0 0
5058 137 10 -0.096 -20.627270233442072 -12.48163660798349 -13.281806620189338 0 0 0
5061 137 10 -0.096 -19.10939689292596 -12.64747839222823 -13.105141617863666 0 0 0
4336 118 5 0.168 -25.306473377839257 -25.262136514344544 -21.443716457413792 1 0 0
429 12 11 0.048 -25.56399902023796 -0.24418709061929725 -16.1770323368014 0 0 1
5068 137 11 0.048 -18.52622592809076 -10.637099796239138 -13.715382418513546 0 0 0
9799 265 11 0.048 -18.260188093191697 -15.434013091894544 -13.969877214965713 0 0 0