ITEM: TIMESTEP
9910000
ITEM: NUMBER OF ATOMS
2520
ITEM: BOX BOUNDS pp pp pp
-2.0000000000000000e+01 2.0000000000000000e+01
-2.0000000000000000e+01 2.0000000000000000e+01
-2.0000000000000000e+02 2.0000000000000000e+02
ITEM: ATOMS id type xs ys zs
1761 11 0.289878 0.132034 0.478196
1325 10 0.918253 0.452227 0.47994
1703 11 0.110178 0.132679 0.478502
1704 11 0.147678 0.124609 0.480378
1700 12 0.123936 0.137273 0.480809
741 11 0.104466 0.43413 0.480571
1766 11 0.208944 0.160051 0.472372
1765 11 0.237907 0.168734 0.469454
1762 12 0.234915 0.154524 0.47176
1759 10 0.263443 0.158374 0.474357
1767 11 0.235917 0.128286 0.471031
1756 10 0.264925 0.132084 0.477101
1290 11 0.319966 0.0554378 0.479708
1763 11 0.287091 0.154507 0.473059
1760 11 0.263817 0.107509 0.475929
1983 11 0.940139 0.901832 0.481148
1813 8 0.288931 0.940553 0.4794
1285 9 0.327478 0.038536 0.481709
1295 11 0.371972 0.0443637 0.476663
1291 10 0.384399 0.0297128 0.478596
1294 10 0.422267 0.0389195 0.478671
1300 11 0.424712 0.0607021 0.473606
1299 11 0.427842 0.0593397 0.480387
1297 12 0.438149 0.0426417 0.475142
1302 11 0.462575 0.0545123 0.475366
1542 10 0.109465 0.854622 0.481822
217 11 0.659356 0.833196 0.478982
644 11 0.545293 0.691816 0.481778
1301 11 0.438617 0.0199635 0.473632
1296 11 0.38169 0.00382349 0.47779
799 11 0.441651 0.116543 0.47867
27 11 0.549246 0.60228 0.48059
266 11 0.518531 0.991618 0.478733
1979 12 0.96277 0.910883 0.47993
1507 11 0.822914 0.024836 0.479577
771 11 0.666031 0.0305866 0.479532
1705 11 0.128372 0.163978 0.48112
767 10 0.677231 0.00918585 0.480793
1512 11 0.889735 0.0389655 0.481626
770 12 0.692167 0.984242 0.4781
773 11 0.711201 -0.00345055 0.476588
774 11 0.67083 0.975164 0.476669
775 11 0.703047 0.963295 0.479462
1323 11 0.970372 0.503809 0.481294
1269 11 0.879114 0.12597 0.474677
1268 11 0.948543 0.162552 0.476503
1263 10 0.931634 0.141267 0.476692
1267 11 0.946362 0.12071 0.475677
1517 11 0.964359 -0.011262 0.478186
1271 11 0.883105 0.16863 0.475991
1270 11 0.898162 0.151862 0.472231
1266 12 0.896018 0.147218 0.474908
1514 12 0.941565 0.00365847 0.478127
1513 11 0.87415 0.0177443 0.477891
1508 10 0.882322 0.0153794 0.48048
1261 11 0.970924 0.114874 0.481511
1518 11 0.947444 0.0296855 0.47868
1265 11 0.905282 0.113085 0.480917
1264 11 0.903559 0.154989 0.48083
1260 10 0.921035 0.134614 0.480361
1511 10 0.913971 0.992482 0.480576
1519 11 0.933726 1.00457 0.475519
144 10 0.936034 0.278913 0.480905
1549 11 0.119627 0.803112 0.480516
2042 11 0.4574 0.299041 0.479847
264 8 0.466933 0.954621 0.480366
1550 11 0.132852 0.834117 0.477566
737 11 0.0920066 0.373394 0.479721
432 11 0.0376647 0.246735 0.479372
429 12 0.0389194 0.22037 0.480049
739 12 0.147181 0.416684 0.477776
744 11 0.168573 0.39998 0.478019
743 11 0.131471 0.409091 0.475683
434 11 0.0638667 0.217103 0.481096
733 10 0.111734 0.379968 0.481482
738 11 0.134246 0.364727 0.481296
1764 11 0.269803 0.183574 0.475175
989 11 0.32176 0.34728 0.481047
992 11 0.322599 0.313149 0.475828
991 11 0.36273 0.334036 0.476427
987 12 0.345359 0.315008 0.477315
990 11 0.355804 0.290236 0.47687
148 11 0.923278 0.283427 0.47854
984 10 0.332533 0.322265 0.480959
1981 11 0.00868511 0.883562 0.478107
801 12 0.439826 0.203527 0.478831
804 11 0.423033 0.214717 0.477
650 11 0.614498 0.722089 0.479141
795 10 0.452344 0.139829 0.479597
798 10 0.427871 0.167438 0.478286
802 11 0.402524 0.162028 0.479128
2046 11 0.425851 0.354916 0.477601
803 11 0.42804 0.167286 0.475561
800 11 0.476345 0.144214 0.478383
1515 11 0.910512 0.969187 0.479205
1984 11 0.952555 0.919854 0.477568
1330 11 0.901539 0.473511 0.480259
433 11 0.0354234 0.201443 0.47812
1976 10 0.985557 0.878503 0.479456
153 11 0.00176212 0.337865 0.480621
150 12 0.989378 0.314254 0.480058
1298 11 0.434891 0.0185586 0.479969
155 11 0.00740119 0.295977 0.480973
742 11 0.156149 0.441451 0.477078
736 10 0.125872 0.417568 0.480888
805 11 0.465992 0.20798 0.478214
149 11 0.955563 0.262379 0.479968
1289 11 0.319274 0.0144089 0.480744
2045 11 0.451872 0.374417 0.480674
2041 12 0.449333 0.353269 0.478974
2044 11 0.469909 0.358498 0.477266
960 11 0.492416 0.440065 0.476764
956 12 0.49959 0.457414 0.47874
959 11 0.499198 0.482161 0.477599
950 10 0.440836 0.457941 0.481321
583 11 0.760507 0.232932 0.480817
269 11 0.525955 0.933571 0.476235
955 11 0.429627 0.4442 0.479252
2038 10 0.455356 0.322826 0.481161
961 11 0.525697 0.451092 0.479198
711 11 0.631331 0.341024 0.478273
713 11 0.620184 0.379531 0.480109
708 12 0.641147 0.364716 0.479194
712 11 0.65332 0.379685 0.47727
1548 11 0.0885956 0.826307 0.478022
273 11 0.566764 0.980345 0.475347
589 11 0.711772 0.300928 0.477133
588 11 0.748664 0.275729 0.477106
22 11 0.546403 0.506013 0.481221
584 12 0.722122 0.276412 0.47772
1235 12 0.904854 0.82458 0.47911
154 11 0.985223 0.310051 0.477398
272 11 0.590715 0.96903 0.478626
2344 14 0.369422 0.89064 0.481205
279 11 0.591859 0.923487 0.469415
1332 11 0.91248 0.398464 0.479665
262 9 0.520736 0.969304 0.480281
1333 11 0.877162 0.419696 0.478485
1328 12 0.897575 0.420406 0.480289
276 11 0.617032 0.948267 0.474235
1053 11 0.175025 0.611199 0.478559
244 11 0.926799 0.654276 0.480501
1545 12 0.112917 0.826297 0.479251
1567 10 0.476379 0.821417 0.481613
275 11 0.602134 0.912479 0.476068
985 11 0.28943 0.287967 0.480204
1209 11 0.278971 0.60505 0.474122
1203 11 0.330461 0.634304 0.478165
1980 11 0.973457 0.862275 0.477632
1753 10 0.238391 0.136322 0.479804
1392 11 0.345319 0.558903 0.479446
1578 11 0.546113 0.845967 0.481647
581 10 0.718186 0.266471 0.481314
28 11 0.507632 0.587518 0.480379
29 11 0.510221 0.629258 0.476295
30 11 0.506696 0.591776 0.474126
26 12 0.523299 0.605967 0.475756
212 12 0.683388 0.845367 0.479393
268 10 0.572685 0.95855 0.476872
216 11 0.691051 0.858917 0.477156
25 11 0.570929 0.552513 0.477864
23 10 0.531283 0.588959 0.479033
20 10 0.545465 0.551921 0.478832
24 11 0.529107 0.541752 0.476905
31 11 0.546813 0.614779 0.474697
1329 11 0.928397 0.450531 0.477417
651 11 0.575242 0.709428 0.477345
649 11 0.613896 0.693336 0.475935
646 12 0.600003 0.701297 0.47814
277 11 0.558923 0.947176 0.470782
143 11 0.91213 0.214687 0.480724
270 11 0.54525 0.92059 0.4799
339 11 0.67465 0.468319 0.479596
1239 11 0.912432 0.848278 0.477999
1757 11 0.212906 0.135043 0.478848
247 11 0.973269 0.682736 0.478833
243 12 0.957914 0.697712 0.480514
587 11 0.709803 0.261035 0.475837
1754 11 0.242606 0.187747 0.480636
271 10 0.59382 0.935297 0.474832
278 11 0.559645 0.903849 0.4717
1197 11 0.283344 0.715816 0.480838
1208 11 0.243952 0.628743 0.475092
1206 11 0.273412 0.67828 0.475995
1207 11 0.26794 0.638504 0.471474
1201 10 0.29147 0.658015 0.475754
1204 12 0.269178 0.630475 0.474076
1200 11 0.339084 0.6951 0.479641
1205 11 0.309234 0.668535 0.473975
1202 11 0.296622 0.62973 0.480502
1198 10 0.308986 0.648837 0.479003
1195 10 0.324015 0.678633 0.481204
1572 11 0.461154 0.808407 0.479765
954 11 0.43646 0.484239 0.480757
1052 11 0.199497 0.58024 0.480304
643 10 0.594205 0.672853 0.48073
1806 6 0.265695 0.936596 0.480767
1574 11 0.518335 0.792226 0.479315
647 11 0.587658 0.649779 0.479437
1579 11 0.578261 0.788415 0.480997
265 10 0.540237 0.942599 0.478373
1240 11 0.888548 0.812036 0.477323
582 11 0.722076 0.212326 0.481344
1238 11 0.925372 0.806676 0.479212
1546 11 0.099548 0.875924 0.480442
1825 11 0.172896 0.975901 0.47343
1571 11 0.480287 0.847361 0.480877
246 11 0.945377 0.71537 0.47886
1829 11 0.150047 0.939665 0.478023
1826 11 0.175382 0.991005 0.477395
1814 8 0.247293 0.924438 0.479167
1824 12 0.175863 0.938196 0.477163
1827 11 0.191068 0.92963 0.479256
1828 11 0.178352 0.919958 0.475154
1821 10 0.184755 0.970765 0.475829
1820 11 0.236337 0.0172356 0.478328
1822 11 0.233375 0.951285 0.474211
1819 11 0.270196 0.99366 0.476685
1815 10 0.245504 0.992068 0.477827
1812 9 0.251169 0.970452 0.481132
274 12 0.574878 0.926377 0.471526
1823 11 0.224978 0.989496 0.472888
1818 10 0.22176 0.974197 0.47512
1570 10 0.511463 0.802844 0.481729
210 11 0.638244 0.895245 0.481275
1051 11 0.217064 0.645548 0.480165
215 11 0.69943 0.823698 0.479789
1758 11 0.237309 0.113982 0.481361
1509 11 0.849839 0.972616 0.481423
1805 5 0.300197 0.877048 0.481813
341 11 0.703334 0.445643 0.481915
1049 12 0.185502 0.602768 0.480929
2343 14 0.363551 0.949817 0.481154
427 11 0.0483551 0.236586 0.486408
1395 11 0.310412 0.517115 0.482078
1581 11 0.597965 0.814744 0.484011
430 11 0.99136 0.219569 0.481672
1279 6 0.30405 0.0506182 0.484477
2249 14 0.222045 0.0535785 0.485981
1287 8 0.307348 0.0776239 0.484323
640 10 0.565818 0.681369 0.483234
1750 9 0.24029 0.165377 0.482174
1502 9 0.822091 0.0160006 0.482153
1199 11 0.340944 0.668971 0.483108
648 11 0.615546 0.667263 0.48233
1816 11 0.227196 0.967326 0.482389
2470 14 0.261441 0.826589 0.482396
1755 11 0.263955 0.16692 0.483516
336 12 0.679169 0.458126 0.482083
1292 11 0.372426 0.0205508 0.48405
2040 11 0.402436 0.312804 0.482403
792 10 0.455373 0.135466 0.483359
251 1 0.476759 0.98326 0.484737
797 11 0.432093 0.125407 0.484356
789 9 0.484562 0.115196 0.484394
618 11 0.2683 0.40099 0.484532
146 11 0.891186 0.27442 0.483819
2315 14 0.617223 0.090528 0.483002
793 11 0.506659 0.127784 0.483416
2311 13 0.586643 0.0850821 0.484654
1503 8 0.79285 0.0581728 0.484505
1496 6 0.816515 0.0451135 0.48485
1504 8 0.835533 0.0645795 0.48471
19 11 0.589872 0.539588 0.484236
1262 11 0.964568 0.156315 0.482603
761 10 0.690087 0.0427411 0.48623
765 11 0.674725 0.0636851 0.485405
1293 11 0.376288 0.0614344 0.483166
1256 8 0.931896 0.0691965 0.484535
1248 6 0.940822 0.0818247 0.486779
1254 9 0.942233 0.120487 0.486171
1387 10 0.348535 0.553313 0.482094
340 11 0.659676 0.439979 0.482659
1327 11 0.965952 0.442005 0.481694
423 10 0.0215222 0.232345 0.486194
1817 11 0.267008 0.983768 0.482905
1232 10 0.885944 0.82901 0.48257
727 9 0.090199 0.334004 0.485493
732 11 0.0739594 0.321816 0.483676
731 11 0.114617 0.322032 0.485319
1393 11 0.294095 0.555436 0.483217
1391 11 0.366163 0.532535 0.482127
981 10 0.306619 0.29524 0.48219
1054 11 0.166839 0.596938 0.482827
986 11 0.318125 0.271331 0.482811
645 11 0.554882 0.657886 0.48408
983 11 0.27419 0.330997 0.484408
978 10 0.287861 0.30872 0.485179
1233 11 0.86799 0.780365 0.48247
428 11 0.0099894 0.256964 0.486008
2035 10 0.425996 0.316554 0.48372
1973 10 0.993816 0.853964 0.482266
2312 14 0.563421 0.074908 0.482267
1547 11 0.0930268 0.848973 0.483921
796 11 0.457937 0.161422 0.484148
209 10 0.686282 0.86778 0.482535
988 11 0.353428 0.321871 0.482708
578 10 0.736928 0.23358 0.482182
2468 14 0.219779 0.785726 0.483367
576 11 0.746125 0.175024 0.48548
152 11 0.940123 0.331791 0.480749
1288 10 0.366889 0.0383582 0.482063
10 7 0.580479 0.413297 0.483814
575 10 0.741795 0.229609 0.48588
426 10 0.0148922 0.212965 0.482877
257 7 0.521775 0.0123937 0.485446
242 11 0.893209 0.695129 0.483532
1510 11 0.862266 0.992225 0.485004
1697 10 0.104783 0.120796 0.483571
1544 11 0.16356 0.869534 0.481587
794 11 0.484157 0.0910592 0.48313
1047 11 0.160188 0.662621 0.483264
141 10 0.915115 0.261868 0.483467
214 11 0.70438 0.887998 0.482285
730 10 0.0952416 0.372933 0.484866
1975 11 -0.00600115 0.891999 0.486258
735 11 0.0708339 0.385021 0.484781
138 9 0.913261 0.222095 0.483344
614 11 0.215199 0.476398 0.484567
612 10 0.251806 0.44655 0.486674
431 11 0.0158194 0.186168 0.483363
586 11 0.69272 0.268166 0.482269
949 11 0.370945 0.463913 0.482964
1841 8 0.717909 0.579274 0.484698
2039 11 0.423997 0.339443 0.485185
1506 11 0.803375 0.996225 0.482262
947 10 0.422791 0.448298 0.484614
944 9 0.384741 0.443353 0.484102
951 11 0.432802 0.426625 0.485928
2043 11 0.480863 0.324067 0.482111
958 11 0.488327 0.466141 0.483868
4 3 0.581919 0.46612 0.485212
706 11 0.620628 0.325614 0.483713
2457 14 0.168615 0.251603 0.482333
1046 10 0.206775 0.63225 0.48231
5 3 0.577074 0.433394 0.485584
213 11 0.692934 0.852123 0.484664
710 11 0.676658 0.376513 0.483679
705 10 0.664036 0.356852 0.482277
1576 12 0.574681 0.802483 0.483303
1236 11 0.901175 0.846752 0.483969
709 11 0.685158 0.344538 0.481073
1060 4 0.0891936 0.759209 0.486052
806 11 0.431733 0.213143 0.481249
615 12 0.256465 0.423785 0.483622
971 7 0.169436 0.371349 0.485027
316 4 0.82455 0.39502 0.484222
321 8 0.823373 0.418788 0.482894
1326 11 0.935223 0.443892 0.484685
1319 10 0.956818 0.492299 0.483359
1322 10 0.944364 0.456752 0.482463
323 8 0.815812 0.378257 0.482259
957 11 0.483417 0.424653 0.482704
1840 8 0.75727 0.557641 0.484814
1043 10 0.183079 0.654548 0.484502
1050 11 0.226992 0.62304 0.483888
609 10 0.240012 0.480367 0.485621
953 10 0.478491 0.450187 0.48189
1067 8 0.0865215 0.784825 0.485162
2134 12 0.690248 0.73898 0.48644
147 10 0.954017 0.310857 0.481804
1977 11 0.97018 0.841058 0.482682
200 9 0.630035 0.939137 0.486709
1540 11 0.124502 0.918138 0.483479
2459 14 0.117807 0.265794 0.484457
1702 11 0.095667 0.0952406 0.483318
769 11 0.722876 0.0346994 0.482085
1516 11 0.92024 0.987475 0.48318
338 11 0.653306 0.49593 0.484767
18 11 0.558954 0.566711 0.485694
14 9 0.56336 0.541194 0.484845
21 11 0.513465 0.53326 0.482513
1389 11 0.341084 0.600567 0.484493
642 11 0.592874 0.723436 0.485568
1192 9 0.296203 0.700948 0.482726
333 10 0.678413 0.48534 0.484776
1390 12 0.315772 0.539298 0.483567
2465 14 0.833888 0.488204 0.484464
2335 14 0.8164 0.169361 0.484833
1505 10 0.855537 -0.00264655 0.482413
337 11 0.694754 0.505746 0.484007
245 11 0.953572 0.657371 0.48387
9 7 0.59665 0.47993 0.48342
2138 11 0.709801 0.755235 0.485461
613 11 0.254489 0.490737 0.483558
2334 14 0.854437 0.126462 0.485188
237 10 0.913085 0.684606 0.485071
952 11 0.427818 0.468047 0.486423
702 10 0.643016 0.335907 0.484876
740 11 0.138419 0.428972 0.483022
707 11 0.656125 0.313548 0.485717
132 6 0.884353 0.206089 0.485294
1045 11 0.211309 0.700451 0.483548
1193 8 0.28314 0.74328 0.485874
1386 11 0.407778 0.567303 0.486301
1186 6 0.306157 0.730693 0.485137
2321 13 0.433442 0.72232 0.486329
2139 11 0.674577 0.733355 0.484283
1196 11 0.279327 0.68427 0.484066
2466 13 0.240587 0.811888 0.484756
2463 14 0.811238 0.540015 0.485898
1040 10 0.205835 0.685861 0.485784
140 8 0.863246 0.20652 0.483571
2469 14 0.22011 0.836666 0.485828
1257 10 0.952679 0.131796 0.482621
1978 11 0.0101645 0.833889 0.481416
139 8 0.889233 0.179752 0.485795
1194 8 0.320597 0.748226 0.483632
970 7 0.195916 0.313145 0.484954
1580 11 0.57231 0.780283 0.484866
2313 14 0.574359 0.111378 0.486318
1575 11 0.511157 0.781469 0.483419
637 10 0.575465 0.703758 0.486291
1230 11 0.833513 0.813704 0.485881
1842 8 0.752616 0.598227 0.486536
240 10 0.936469 0.671987 0.482332
585 11 0.728733 0.287192 0.482735
1316 9 0.977426 0.499317 0.486392
255 5 0.425316 0.970766 0.485654
764 10 0.703617 0.0202971 0.483366
1324 11 0.935296 0.508839 0.483118
1234 11 0.901238 0.782095 0.485421
1229 10 0.879218 0.795046 0.484472
322 8 0.849592 0.387051 0.484943
2323 14 0.406303 0.73252 0.484605
1751 8 0.187548 0.158867 0.483681
1568 11 0.478176 0.827074 0.486844
1384 10 0.362474 0.585334 0.483765
768 11 0.716489 0.999685 0.484599
1701 11 0.0827542 0.135987 0.484087
205 11 0.618724 0.949812 0.484471
2322 14 0.459805 0.722021 0.484077
1536 10 0.135959 0.90149 0.485306
1539 10 0.142576 0.868488 0.483323
1394 11 0.315282 0.53299 0.486217
1066 8 0.0813458 0.741368 0.484148
2033 11 0.376322 0.282708 0.486868
250 2 0.447368 0.985714 0.486093
1048 11 0.176523 0.642117 0.486837
1543 11 0.152298 0.851301 0.485201
151 11 0.958665 0.313546 0.484475
1801 1 0.273404 0.916917 0.483819
1800 2 0.294349 0.891612 0.48401
620 11 0.231116 0.416169 0.482974
2290 14 0.903144 0.906861 0.486387
1565 8 0.413465 0.840818 0.483368
1280 7 0.323713 0.984278 0.486281
2342 14 0.413071 0.926122 0.482597
1835 4 0.740328 0.574195 0.486161
1564 9 0.458637 0.820493 0.485062
2345 14 0.370433 0.920804 0.485935
2341 13 0.378477 0.921486 0.482565
256 6 0.487512 0.959543 0.482083
1558 6 0.43159 0.847368 0.485294
263 8 0.492123 0.935233 0.483225
1566 8 0.445578 0.870418 0.484899
241 11 0.924931 0.702525 0.486748
203 10 0.661429 0.918941 0.485752
980 11 0.245312 0.279665 0.484731
206 10 0.654161 0.888378 0.483377
1744 6 0.210826 0.169133 0.484657
1573 10 0.541936 0.823507 0.483133
267 11 0.536855 0.976195 0.482367
208 11 0.678338 0.936338 0.484511
211 11 0.637403 0.871629 0.484723
1577 11 0.53815 0.835784 0.485536
238 11 0.885573 0.638126 0.485531
2332 14 0.798205 0.114711 0.485853
1286 8 0.278145 0.0475904 0.483688
142 11 0.937138 0.211933 0.484176
1982 11 0.974801 0.931284 0.481277
2444 14 0.350397 0.11656 0.484849
1537 11 0.18856 0.916623 0.486148
965 3 0.201608 0.332091 0.486791
1318 8 0.987637 0.547281 0.484569
145 11 0.926166 0.267323 0.485897
946 8 0.3441 0.41937 0.486305
1752 8 0.203539 0.195367 0.484546
1255 8 0.966991 0.0744324 0.486956
252 3 0.496106 0.00789104 0.486152
2036 11 0.426682 0.265497 0.484383
2464 14 0.866869 0.529566 0.486544
2456 13 0.148276 0.246334 0.484874
2032 10 0.429311 0.286846 0.486056
1974 11 0.0349801 0.876727 0.485117
1383 11 0.403076 0.630875 0.486019
1569 11 0.449655 0.795184 0.485524
1970 10 0.00860176 0.870585 0.485417
2460 14 0.140032 0.213083 0.485027
982 11 0.305907 0.318143 0.48699
2331 13 0.823546 0.13832 0.486466
762 11 0.737121 0.0707678 0.486633
2137 11 0.704319 0.716206 0.48695
1258 11 0.916866 0.130142 0.486412
1065 8 0.115815 0.753474 0.486151
1311 7 0.0378605 0.57749 0.485982
1237 11 0.862624 0.84273 0.482245
772 11 0.659575 0.994149 0.482224
619 11 0.270655 0.436944 0.481703
1331 11 0.887987 0.41247 0.482713
248 11 0.973045 0.711841 0.482286
17 10 0.540094 0.531461 0.481963
948 11 0.381829 0.421919 0.482444
1388 11 0.374093 0.603127 0.482059
1259 11 0.954755 0.132387 0.488278
207 11 0.67448 0.909189 0.487936
2248 14 0.213544 0.000877265 0.487891
2133 11 0.632932 0.782555 0.486925
1691 10 0.104816 0.101047 0.489869
1273 2 0.291027 0.0430344 0.490679
2467 14 0.257018 0.799958 0.487567
1745 7 0.249705 0.120299 0.487241
2455 14 0.0461455 0.677555 0.48828
201 8 0.630557 0.988211 0.487739
1739 1 0.215958 0.159923 0.488065
1799 1 0.296533 0.878615 0.486994
331 11 0.733542 0.441242 0.48699
2441 13 0.349688 0.12541 0.48826
2453 14 0.0868102 0.638817 0.487619
1044 11 0.228405 0.677857 0.487084
253 3 0.477171 0.0254817 0.488302
778 1 0.492317 0.143892 0.490131
249 1 0.446795 0.00970492 0.488359
1231 11 0.838974 0.774315 0.487452
783 6 0.487271 0.111571 0.488468
791 8 0.464945 0.098331 0.489297
1533 9 0.164934 0.915259 0.487499
1810 8 0.307108 0.826717 0.487041
1227 11 0.873341 0.841713 0.489313
938 6 0.366004 0.432325 0.487279
1541 11 0.112663 0.899349 0.486704
790 8 0.506896 0.0961158 0.489557
635 8 0.505663 0.693085 0.487258
634 9 0.548281 0.719285 0.488631
758 9 0.718817 0.0579712 0.488194
1490 2 0.815163 0.00221479 0.489513
2305 14 0.603231 0.618989 0.487068
1491 1 0.815344 0.0329958 0.488473
422 11 0.0152343 0.160364 0.490019
763 11 0.731403 0.0399792 0.489808
317 5 0.797172 0.450264 0.48711
420 10 0.0108336 0.215726 0.489448
2286 13 0.889081 0.927647 0.488798
1249 7 0.932843 0.0218564 0.489685
2247 14 0.17068 0.0355193 0.48798
1243 1 0.919304 0.072207 0.489767
1317 8 0.957626 0.547449 0.48767
1218 7 0.829536 0.883319 0.489933
1226 10 0.852325 0.797697 0.487032
1039 8 0.220488 0.74852 0.487757
417 9 0.0306274 0.182595 0.490357
425 11 0.984013 0.212816 0.489064
721 6 0.0770143 0.327228 0.489111
421 11 0.0494854 0.176387 0.48849
2115 5 0.557339 0.829258 0.490633
579 11 0.76487 0.237543 0.487093
700 11 0.626846 0.308981 0.490708
977 8 0.236623 0.281921 0.491291
696 9 0.612987 0.332438 0.490656
1699 11 0.12384 0.146405 0.488117
979 11 0.273741 0.260654 0.487361
1037 9 0.185503 0.707176 0.488136
975 9 0.262113 0.284689 0.486816
1972 11 0.00940643 0.822767 0.487813
2034 11 0.396029 0.308967 0.489587
2029 9 0.398743 0.284563 0.488405
2037 11 0.452253 0.284311 0.487504
330 10 0.687137 0.472468 0.488153
641 11 0.589362 0.686411 0.487867
580 11 0.722929 0.245252 0.487071
629 7 0.497535 0.627745 0.487845
1830 1 0.736607 0.560194 0.489435
2255 14 0.261242 0.604794 0.490099
226 7 0.875659 0.579518 0.489008
3 1 0.561847 0.48189 0.487768
574 8 0.735329 0.156677 0.490699
723 7 0.973495 0.380167 0.488557
566 6 0.745493 0.181774 0.490393
972 8 0.176449 0.427875 0.489325
611 11 0.230536 0.531325 0.487405
8 6 0.559132 0.520713 0.488105
1 1 0.553887 0.429081 0.487972
2023 6 0.40276 0.255674 0.490752
239 11 0.910738 0.64494 0.488794
2287 14 0.90509 0.957616 0.488988
967 4 0.178232 0.407145 0.491085
2289 14 0.856759 0.932781 0.487817
2269 14 0.124269 0.46175 0.488425
2266 13 0.0976643 0.466053 0.490592
1385 11 0.374955 0.564271 0.488683
1831 2 0.709061 0.550046 0.490738
728 8 0.0983036 0.331656 0.490753
716 1 0.0468638 0.346582 0.489781
725 8 0.999346 0.438307 0.49098
1696 11 0.0926355 0.0784538 0.488954
1495 5 0.820479 0.979938 0.488083
6 4 0.538236 0.397491 0.489103
616 11 0.232976 0.432695 0.488074
2135 11 0.659142 0.737479 0.490851
782 5 0.544012 0.156129 0.489363
7 5 0.522816 0.462271 0.490647
945 8 0.378683 0.412642 0.488673
933 1 0.356799 0.459705 0.489648
1382 11 0.367411 0.628541 0.488509
751 5 0.639185 0.115166 0.489999
235 11 0.842366 0.681166 0.487864
704 11 0.618622 0.377393 0.487508
759 8 0.701172 0.108183 0.488862
2 2 0.542512 0.457839 0.488854
699 10 0.633621 0.356061 0.488299
1378 9 0.391084 0.616153 0.487974
1695 11 0.0853259 0.117002 0.490909
1275 3 0.313545 1.00018 0.488211
2462 14 0.829557 0.506376 0.489856
1381 10 0.384544 0.580839 0.486743
312 2 0.79574 0.427651 0.488578
311 1 0.806902 0.398923 0.487421
327 10 0.725623 0.462097 0.488555
1528 7 0.107635 0.994667 0.487184
332 11 0.740545 0.483144 0.487678
1055 1 0.0764308 0.755643 0.489386
606 10 0.237584 0.507062 0.488426
939 7 0.384705 0.502404 0.48784
1321 11 0.964537 0.489046 0.488562
1836 5 0.684436 0.549788 0.489631
1969 8 0.950747 0.852415 0.488932
599 7 0.132795 0.598709 0.489199
594 3 0.1516 0.589063 0.49088
334 11 0.68075 0.491774 0.489967
2442 14 0.342948 0.0986526 0.490396
234 10 0.892843 0.6582 0.487224
598 7 0.165088 0.541145 0.488561
259 8 0.416541 0.0442955 0.490323
315 3 0.80253 0.375255 0.489823
572 9 0.733526 0.193267 0.487064
610 11 0.260613 0.512546 0.489776
1059 3 0.0434168 0.749458 0.489898
1694 10 0.121674 0.121351 0.487068
2330 14 0.463089 0.553166 0.489528
1380 8 0.44274 0.615909 0.489656
573 8 0.77273 0.181034 0.490432
2328 14 0.470951 0.49648 0.490049
202 8 0.658477 0.968924 0.49043
1276 3 0.30636 0.990041 0.491285
969 6 0.247086 0.302556 0.489851
131 5 0.824988 0.227284 0.487648
15 8 0.535155 0.525521 0.489307
16 8 0.578844 0.526514 0.489895
963 2 0.219307 0.359874 0.490875
934 3 0.369092 0.492124 0.489788
2301 13 0.626516 0.608193 0.489383
2304 14 0.621905 0.574135 0.490062
624 3 0.516812 0.630315 0.489718
1535 8 0.17858 0.953372 0.490737
717 3 0.0173838 0.343554 0.488217
714 1 0.0165307 0.389001 0.491363
258 7 0.482012 0.0461211 0.489974
12 8 0.512143 0.39573 0.488338
2268 14 0.0723486 0.484655 0.489092
1967 9 0.00616329 0.848539 0.488636
1310 6 0.981192 0.535787 0.486954
1220 8 0.714881 0.865908 0.489786
335 11 0.671361 0.450818 0.488652
231 9 0.861365 0.669037 0.489396
2246 13 0.205953 0.0330377 0.48835
2126 11 0.613975 0.848538 0.489033
13 8 0.552867 0.377863 0.487906
752 6 0.704608 0.0868923 0.490527
1740 3 0.236974 0.133293 0.489236
1372 6 0.418212 0.621636 0.490696
1031 6 0.206696 0.73627 0.489763
1038 8 0.192624 0.758095 0.490589
1041 11 0.174169 0.69176 0.490076
1187 7 0.304014 0.670102 0.488897
1182 3 0.320904 0.688932 0.489841
1181 1 0.324047 0.719561 0.488181
2131 10 0.674191 0.755835 0.489513
1497 7 0.811816 0.0786988 0.491227
1559 7 0.41156 0.795497 0.489996
2452 14 0.0962842 0.682014 0.491041
786 8 0.555035 0.213714 0.489672
1180 2 0.346898 0.736305 0.489763
1554 3 0.40668 0.821374 0.490593
787 8 0.518248 0.241127 0.489438
2325 14 0.441899 0.743019 0.489029
1185 5 0.354676 0.761415 0.489147
2349 14 0.491444 0.887429 0.489595
2127 11 0.653573 0.852962 0.490956
1960 5 0.949855 0.918267 0.490608
964 1 0.223782 0.329936 0.489291
232 8 0.82432 0.630593 0.489185
628 6 0.518829 0.697755 0.489598
639 11 0.560317 0.725202 0.491003
623 1 0.526871 0.662964 0.490862
2445 14 0.327467 0.150861 0.488582
225 6 0.8406 0.643055 0.49098
2128 10 0.652747 0.787477 0.48873
2132 11 0.670187 0.806257 0.487804
2362 14 0.744913 0.312072 0.49004
236 11 0.867203 0.689839 0.491056
204 11 0.608413 0.924703 0.487526
718 3 0.997906 0.369894 0.489083
962 1 0.194412 0.377462 0.489764
1223 9 0.863831 0.817579 0.490148
1274 1 0.303463 0.0332877 0.487703
1523 3 0.10465 0.979604 0.489404
1213 3 0.807643 0.870831 0.490901
1961 6 0.971669 0.852108 0.490678
194 6 0.633753 0.966224 0.489317
1538 11 0.168417 0.897245 0.489513
2333 14 0.826794 0.144158 0.489944
1522 1 0.127164 0.958543 0.490749
1527 6 0.15864 0.950789 0.488897
195 7 0.566357 0.977721 0.488315
1807 7 0.250997 0.94611 0.487605
2443 14 0.381672 0.139059 0.48922
1804 4 0.318462 0.850146 0.487845
1214 3 0.776355 0.881287 0.490951
1802 3 0.266317 0.924749 0.486988
701 11 0.588805 0.326607 0.489544
1803 3 0.278587 0.899846 0.488904
703 11 0.657582 0.362494 0.489426
1553 1 0.414763 0.849762 0.488706
1552 2 0.413167 0.874655 0.490738
2303 14 0.657078 0.609001 0.487855
1557 5 0.415276 0.900269 0.48991
2350 14 0.536178 0.913781 0.48841
1306 3 0.0349317 0.566691 0.48844
2458 14 0.165674 0.253122 0.487848
127 1 0.874436 0.223352 0.488402
254 4 0.418791 0.0172148 0.490526
777 2 0.519182 0.16199 0.490247
729 8 0.0696761 0.301081 0.489335
1743 5 0.182086 0.190974 0.490692
2031 8 0.413109 0.235192 0.489283
2388 14 0.891853 0.355441 0.488417
260 8 0.396943 0.00435749 0.489526
776 1 0.509426 0.193119 0.490998
1219 7 0.769697 0.905419 0.489939
320 7 0.806824 0.348837 0.489467
1064 7 0.0257227 0.745375 0.4879
1738 2 0.200599 0.171396 0.490864
126 2 0.846407 0.235303 0.489083
2451 13 0.0696738 0.660512 0.489822
1809 8 0.322147 0.848018 0.490537
593 3 0.169179 0.56038 0.490411
608 11 0.186611 0.493508 0.490076
1305 1 0.00946903 0.544182 0.489093
835 11 0.968095 0.669228 0.49027
781 4 0.531646 0.221792 0.490813
1971 11 0.0262869 0.851547 0.490449
412 7 0.100419 0.19876 0.490067
630 7 0.525261 0.580243 0.491444
2518 14 0.777003 0.699512 0.490527
973 8 0.152855 0.403239 0.491998
2346 13 0.511887 0.912068 0.490883
1244 3 0.919534 0.0400797 0.491167
133 7 0.922223 0.230667 0.490211
766 11 0.674248 0.0287139 0.487947
734 11 0.111826 0.382201 0.486819
1320 11 1.00143 0.486513 0.486234
617 11 0.275039 0.447781 0.488093
1811 8 0.343546 0.851794 0.486794
1698 11 0.146574 0.11096 0.486686
1042 11 0.164548 0.717611 0.486741
2324 14 0.426645 0.689061 0.487455
577 11 0.706597 0.18917 0.486985
638 11 0.53752 0.742807 0.487773
722 7 0.0127939 0.322271 0.486621
1534 8 0.162591 0.969739 0.486979
966 3 0.186286 0.361202 0.486876
2461 13 0.834676 0.516047 0.486643
2314 14 0.588614 0.0571304 0.4867
2296 13 0.00616834 0.0488525 0.494312
1026 1 0.232252 0.728483 0.492448
2299 14 0.0162377 0.0809774 0.49324
1689 8 0.107031 0.0397766 0.49287
11 8 0.538384 0.396823 0.491827
1839 7 0.786974 0.561865 0.491354
1692 11 0.132061 0.108832 0.494273
1741 3 0.235361 0.13242 0.492587
625 3 0.531294 0.606552 0.491511
726 8 0.983854 0.417004 0.494395
1242 2 0.904609 0.0919853 0.491944
2302 14 0.62734 0.627129 0.492323
2294 14 0.722422 0.952311 0.491802
1688 9 0.12698 0.0875368 0.492651
2019 3 0.346282 0.265833 0.493793
935 3 0.355779 0.508683 0.492393
261 8 0.426847 0.0129238 0.493094
746 2 0.644773 0.0961652 0.491835
757 8 0.571563 0.0655209 0.493047
745 1 0.622686 0.0798046 0.493567
750 4 0.586281 0.0875496 0.493685
756 8 0.575364 0.107362 0.492165
747 1 0.67218 0.0794767 0.492211
1493 3 0.808035 0.0342349 0.493992
760 8 0.721702 0.094725 0.4925
720 5 0.0616979 0.380747 0.493826
940 7 0.362283 0.533263 0.493302
2454 14 0.0573628 0.645405 0.49274
1245 3 0.900989 0.0410853 0.493877
1241 1 0.894264 0.0738868 0.494486
406 1 0.0725745 0.205268 0.494524
833 11 0.0038843 0.668161 0.495353
1524 3 0.0782359 0.982367 0.491672
1833 3 0.745712 0.552576 0.494762
411 6 0.0467419 0.180431 0.493841
1693 11 0.152213 0.0810774 0.49185
407 3 0.0990691 0.211868 0.492424
1379 8 0.417172 0.647163 0.491644
836 11 0.974781 0.710566 0.491377
1964 8 0.938065 0.972759 0.494392
2214 14 0.474018 0.329211 0.492607
715 2 0.0448862 0.372448 0.491883
2122 9 0.628964 0.841511 0.491197
1968 8 0.970632 0.827956 0.491935
2389 14 0.915993 0.331868 0.492923
2288 14 0.889085 0.911576 0.491794
2520 14 0.763404 0.755015 0.491453
1872 8 0.847055 0.462087 0.495193
697 8 0.591539 0.366855 0.494323
1470 8 0.180772 0.832779 0.491791
849 8 0.675562 0.681321 0.492083
779 3 0.463783 0.163618 0.491175
2018 1 0.371177 0.245374 0.492424
2017 2 0.363616 0.213983 0.493048
780 3 0.475364 0.1947 0.491524
408 3 0.118825 0.233331 0.493847
784 7 0.440112 0.151171 0.491546
2022 5 0.37932 0.192734 0.492493
2261 13 0.106594 0.849794 0.494316
2030 8 0.422515 0.260077 0.492577
2027 8 0.293786 0.179118 0.494193
1057 1 0.0704816 0.753059 0.494704
603 9 0.211232 0.498636 0.491125
313 1 0.785075 0.425919 0.491749
2309 14 0.578857 0.178698 0.494039
1225 8 0.83244 0.794825 0.49384
2306 13 0.61217 0.183706 0.494573
2307 14 0.629142 0.191337 0.491626
1228 11 0.885052 0.804674 0.491269
565 5 0.687475 0.216644 0.491803
560 2 0.706333 0.214987 0.493728
2472 14 0.35358 0.350107 0.493384
1367 1 0.413342 0.603485 0.493846
135 8 0.797514 0.271286 0.491793
2361 13 0.723212 0.32477 0.492386
724 8 0.0253895 0.429151 0.494561
1222 8 0.710275 0.86256 0.494121
130 4 0.821459 0.277307 0.492946
1492 3 0.810132 0.0517585 0.491288
2136 11 0.692956 0.762897 0.491358
1272 1 0.295776 0.0186898 0.492812
1309 5 0.997659 0.516279 0.49332
1032 7 0.253029 0.777842 0.492864
2517 14 0.810498 0.733064 0.493592
128 3 0.896122 0.236427 0.490593
125 1 0.847717 0.254922 0.491798
2291 13 0.707445 0.943275 0.494857
2130 11 0.652831 0.799911 0.493891
2473 14 0.303519 0.371586 0.492224
2211 13 0.502187 0.311098 0.493692
2348 14 0.5247 0.899445 0.493746
2267 14 0.107364 0.48023 0.493593
843 4 0.693646 0.666415 0.493474
1346 8 0.416426 0.448919 0.49441
974 8 0.191469 0.417113 0.493248
2270 14 0.0839771 0.433993 0.491154
690 6 0.605919 0.343709 0.494299
324 9 0.730296 0.457651 0.492509
2386 13 0.894325 0.357804 0.491901
424 11 0.0135912 0.233059 0.491533