created by fftool

1800 atoms
1500 bonds
1800 angles
1200 dihedrals
6 atom types
5 bond types
6 angle types
4 dihedral types
-25.000000 25.000000 xlo xhi
-25.000000 25.000000 ylo yhi
-25.000000 25.000000 zlo zhi

Masses

   1   29.042  # TN2q
   2   26.038  # TC6
   3   41.053  # TN2qx
   4   42.081  # SC3
   5   57.116  # C1
   6   86.803  # Q2

Bond Coeffs

   1   111.496176     3.245051  # TC6-TN2q
   2    26.410134     2.887636  # TN2qx-TC6
   3     3.346080     3.273367  # SC3-TN2qx
   4     4.780115     4.495988  # C1-SC3
   5    66.802103     3.943985  # TN2qx-TN2q

Angle Coeffs

   1   177.461759    46.105539  # TN2qx-TN2q-TC6
   2   128.585086    79.857827  # TN2qx-TC6-TN2q
   3     1.553537   109.749078  # SC3-TN2qx-TC6
   4   653.561185    54.036635  # TC6-TN2qx-TN2q
   5     4.541109   128.192856  # SC3-TN2qx-TN2q
   6     3.704589   145.565511  # C1-SC3-TN2qx

Dihedral Coeffs

   1     2.855590    -0.967092    -0.600973    -0.137897  # SC3-TN2qx-TC6-TN2q
   2     0.017759    -0.061652     0.016271     0.216178  # C1-SC3-TN2qx-TC6
   3    -0.328699     0.109936     0.267538    -0.285111  # C1-SC3-TN2qx-TN2q
   4    -0.236251    -0.753433     0.478532    -0.085556  # SC3-TN2qx-TN2q-TC6

Atoms

      1       1    1   0.296000 -1.997398e+01  2.171028e+01 -1.882848e+01  # TN2q c8c1im_CG
      2       1    2   0.128000 -2.234695e+01  1.950041e+01 -1.870260e+01  # TC6 c8c1im_CG
      3       1    3   0.272000 -2.004228e+01  1.779068e+01 -1.838042e+01  # TN2qx c8c1im_CG
      4       1    4   0.104000 -2.044493e+01  1.587409e+01 -1.575755e+01  # SC3 c8c1im_CG
      5       1    5   0.000000 -2.198292e+01  1.192762e+01 -1.424960e+01  # C1 c8c1im_CG
      6       2    1   0.296000 -2.440834e+01 -2.149699e+01  1.847376e+01  # TN2q c8c1im_CG
      7       2    2   0.128000 -2.377061e+01 -1.834104e+01  1.887822e+01  # TC6 c8c1im_CG
      8       2    3   0.272000 -2.108456e+01 -1.937927e+01  1.866457e+01  # TN2qx c8c1im_CG
      9       2    4   0.104000 -1.941691e+01 -1.767905e+01  1.641888e+01  # SC3 c8c1im_CG
     10       2    5   0.000000 -1.673681e+01 -1.414584e+01  1.567901e+01  # C1 c8c1im_CG
     11       3    1   0.296000  1.600679e+00 -1.745684e+01  1.549273e+01  # TN2q c8c1im_CG
     12       3    2   0.128000 -2.286800e-02 -1.714880e+01  1.269997e+01  # TC6 c8c1im_CG
     13       3    3   0.272000 -2.224689e+00 -1.753171e+01  1.452857e+01  # TN2qx c8c1im_CG
     14       3    4   0.104000 -4.441758e+00 -1.516157e+01  1.410196e+01  # SC3 c8c1im_CG
     15       3    5   0.000000 -8.159828e+00 -1.391392e+01  1.190350e+01  # C1 c8c1im_CG
     16       4    1   0.296000  1.117525e+01 -2.372861e+01 -2.165401e+01  # TN2q c8c1im_CG
     17       4    2   0.128000  1.171853e+01 -2.391755e+01 -1.846034e+01  # TC6 c8c1im_CG
     18       4    3   0.272000  1.441951e+01 -2.355456e+01 -1.941501e+01  # TN2qx c8c1im_CG
     19       4    4   0.104000  1.584885e+01 -2.110245e+01 -1.778435e+01  # SC3 c8c1im_CG
     20       4    5   0.000000  1.832783e+01 -1.997664e+01 -1.420648e+01  # C1 c8c1im_CG
     21       5    1   0.296000  5.799477e+00  1.001148e+01  1.522833e+01  # TN2q c8c1im_CG
     22       5    2   0.128000  6.715513e+00  6.898887e+00  1.528290e+01  # TC6 c8c1im_CG
     23       5    3   0.272000  9.238807e+00  8.181628e+00  1.585386e+01  # TN2qx c8c1im_CG
     24       5    4   0.104000  1.057732e+01  6.848645e+00  1.852715e+01  # SC3 c8c1im_CG
     25       5    5   0.000000  1.331128e+01  3.645445e+00  2.010160e+01  # C1 c8c1im_CG
     26       6    1   0.296000  8.990650e-01 -1.017345e+01  1.397708e+01  # TN2q c8c1im_CG
     27       6    2   0.128000 -1.803370e-01 -1.088720e+01  1.695295e+01  # TC6 c8c1im_CG
     28       6    3   0.272000  1.995075e+00 -1.277362e+01  1.673507e+01  # TN2qx c8c1im_CG
     29       6    4   0.104000  3.940866e+00 -1.252553e+01  1.935562e+01  # SC3 c8c1im_CG
     30       6    5   0.000000  4.763163e+00 -1.401336e+01  2.351785e+01  # C1 c8c1im_CG
     31       7    1   0.296000  2.163001e+01  8.875380e+00 -2.067760e-01  # TN2q c8c1im_CG
     32       7    2   0.128000  2.283168e+01  1.087203e+01  2.051481e+00  # TC6 c8c1im_CG
     33       7    3   0.272000  2.169598e+01  1.279705e+01  2.231130e-01  # TN2qx c8c1im_CG
     34       7    4   0.104000  1.976532e+01  1.487231e+01  1.860427e+00  # SC3 c8c1im_CG
     35       7    5   0.000000  1.955780e+01  1.877576e+01  4.081665e+00  # C1 c8c1im_CG
     36       8    1   0.296000 -1.153328e+01  8.890932e+00 -1.189310e+01  # TN2q c8c1im_CG
     37       8    2   0.128000 -1.129467e+01  1.189746e+01 -1.069551e+01  # TC6 c8c1im_CG
     38       8    3   0.272000 -8.859692e+00  1.177163e+01 -1.224261e+01  # TN2qx c8c1im_CG
     39       8    4   0.104000 -8.665721e+00  1.437776e+01 -1.421376e+01  # SC3 c8c1im_CG
     40       8    5   0.000000 -7.200280e+00  1.860723e+01 -1.463554e+01  # C1 c8c1im_CG
     41       9    1   0.296000 -1.071306e+00  1.238753e+01 -1.681437e+01  # TN2q c8c1im_CG
     42       9    2   0.128000 -4.151842e+00  1.148663e+01 -1.729294e+01  # TC6 c8c1im_CG
     43       9    3   0.272000 -3.140491e+00  9.142880e+00 -1.594295e+01  # TN2qx c8c1im_CG
     44       9    4   0.104000 -5.099431e+00  8.380053e+00 -1.343385e+01  # SC3 c8c1im_CG
     45       9    5   0.000000 -8.689535e+00  6.014883e+00 -1.211817e+01  # C1 c8c1im_CG
     46      10    1   0.296000 -6.001448e+00  1.227474e+01 -4.108435e+00  # TN2q c8c1im_CG
     47      10    2   0.128000 -3.200050e+00  1.073135e+01 -3.560282e+00  # TC6 c8c1im_CG
     48      10    3   0.272000 -4.833794e+00  8.520822e+00 -4.445093e+00  # TN2qx c8c1im_CG
     49      10    4   0.104000 -3.293428e+00  6.892309e+00 -6.830496e+00  # SC3 c8c1im_CG
     50      10    5   0.000000 -4.733780e-01  3.527920e+00 -7.801126e+00  # C1 c8c1im_CG
     51      11    1   0.296000  1.468796e+01  1.539997e+01  5.893396e+00  # TN2q c8c1im_CG
     52      11    2   0.128000  1.417548e+01  1.280524e+01  4.013215e+00  # TC6 c8c1im_CG
     53      11    3   0.272000  1.451750e+01  1.151732e+01  6.574993e+00  # TN2qx c8c1im_CG
     54      11    4   0.104000  1.201641e+01  9.480231e+00  7.131544e+00  # SC3 c8c1im_CG
     55      11    5   0.000000  1.047988e+01  5.280753e+00  6.665296e+00  # C1 c8c1im_CG
     56      12    1   0.296000  1.568449e+01 -7.952150e+00  2.981456e+00  # TN2q c8c1im_CG
     57      12    2   0.128000  1.885260e+01 -8.402606e+00  2.442483e+00  # TC6 c8c1im_CG
     58      12    3   0.272000  1.792752e+01 -1.113653e+01  2.351241e+00  # TN2qx c8c1im_CG
     59      12    4   0.104000  1.899984e+01 -1.257629e+01 -3.859410e-01  # SC3 c8c1im_CG
     60      12    5   0.000000  2.230357e+01 -1.498080e+01 -2.261461e+00  # C1 c8c1im_CG
     61      13    1   0.296000  2.063018e+01 -6.350478e+00  1.648507e+01  # TN2q c8c1im_CG
     62      13    2   0.128000  2.208076e+01 -3.621578e+00  1.549549e+01  # TC6 c8c1im_CG
     63      13    3   0.272000  2.006261e+01 -2.519959e+00  1.724247e+01  # TN2qx c8c1im_CG
     64      13    4   0.104000  2.145032e+01 -4.609420e-01  1.937546e+01  # SC3 c8c1im_CG
     65      13    5   0.000000  2.264272e+01  3.799087e+00  2.017809e+01  # C1 c8c1im_CG
     66      14    1   0.296000  1.616113e+01  4.762613e+00  2.251837e+01  # TN2q c8c1im_CG
     67      14    2   0.128000  1.380942e+01  6.983354e+00  2.277941e+01  # TC6 c8c1im_CG
     68      14    3   0.272000  1.607115e+01  8.697978e+00  2.224733e+01  # TN2qx c8c1im_CG
     69      14    4   0.104000  1.536458e+01  1.072622e+01  1.977712e+01  # SC3 c8c1im_CG
     70      14    5   0.000000  1.368580e+01  1.473840e+01  1.863780e+01  # C1 c8c1im_CG
     71      15    1   0.296000 -9.868995e+00  1.350079e+01  1.560052e+01  # TN2q c8c1im_CG
     72      15    2   0.128000 -7.567515e+00  1.122399e+01  1.537749e+01  # TC6 c8c1im_CG
     73      15    3   0.272000 -9.922712e+00  9.556997e+00  1.548978e+01  # TN2qx c8c1im_CG
     74      15    4   0.104000 -9.881609e+00  7.416156e+00  1.301389e+01  # SC3 c8c1im_CG
     75      15    5   0.000000 -8.609529e+00  3.316139e+00  1.167763e+01  # C1 c8c1im_CG
     76      16    1   0.296000 -1.289965e+01  2.252967e+01  1.119862e+01  # TN2q c8c1im_CG
     77      16    2   0.128000 -1.450030e+01  2.095956e+01  1.354448e+01  # TC6 c8c1im_CG
     78      16    3   0.272000 -1.345690e+01  1.871803e+01  1.205274e+01  # TN2qx c8c1im_CG
     79      16    4   0.104000 -1.191677e+01  1.666076e+01  1.408019e+01  # SC3 c8c1im_CG
     80      16    5   0.000000 -1.234210e+01  1.305367e+01  1.673008e+01  # C1 c8c1im_CG
     81      17    1   0.296000  3.895792e+00  5.913450e+00  1.533012e+01  # TN2q c8c1im_CG
     82      17    2   0.128000  3.735175e+00  8.855531e+00  1.668979e+01  # TC6 c8c1im_CG
     83      17    3   0.272000  9.234040e-01  8.221145e+00  1.651676e+01  # TN2qx c8c1im_CG
     84      17    4   0.104000 -4.938550e-01  8.672786e+00  1.943263e+01  # SC3 c8c1im_CG
     85      17    5   0.000000 -2.628422e+00  1.159002e+01  2.210608e+01  # C1 c8c1im_CG
     86      18    1   0.296000 -1.403709e+01  2.499955e+01  1.633027e+01  # TN2q c8c1im_CG
     87      18    2   0.128000 -1.102448e+01  2.381416e+01  1.655257e+01  # TC6 c8c1im_CG
     88      18    3   0.272000 -1.226237e+01  2.175882e+01  1.494582e+01  # TN2qx c8c1im_CG
     89      18    4   0.104000 -1.045203e+01  2.120149e+01  1.227618e+01  # SC3 c8c1im_CG
     90      18    5   0.000000 -7.106118e+00  1.877656e+01  1.050459e+01  # C1 c8c1im_CG
     91      19    1   0.296000  7.117442e+00 -6.063434e+00  4.958077e+00  # TN2q c8c1im_CG
     92      19    2   0.128000  8.741874e+00 -8.865305e+00  5.160789e+00  # TC6 c8c1im_CG
     93      19    3   0.272000  6.042696e+00 -9.859617e+00  4.907373e+00  # TN2qx c8c1im_CG
     94      19    4   0.104000  5.903898e+00 -1.208402e+01  2.509942e+00  # SC3 c8c1im_CG
     95      19    5   0.000000  6.241413e+00 -1.644617e+01  1.474725e+00  # C1 c8c1im_CG
     96      20    1   0.296000 -1.091072e+01 -1.309516e+01  1.116118e+01  # TN2q c8c1im_CG
     97      20    2   0.128000 -9.868609e+00 -1.002449e+01  1.128499e+01  # TC6 c8c1im_CG
     98      20    3   0.272000 -7.787249e+00 -1.132942e+01  1.280274e+01  # TN2qx c8c1im_CG
     99      20    4   0.104000 -4.856288e+00 -1.047841e+01  1.161944e+01  # SC3 c8c1im_CG
    100      20    5   0.000000 -1.452329e+00 -7.554279e+00  1.189589e+01  # C1 c8c1im_CG
    101      21    1   0.296000  1.661056e+01  1.474973e+01  4.026668e+00  # TN2q c8c1im_CG
    102      21    2   0.128000  1.846104e+01  1.326355e+01  6.239658e+00  # TC6 c8c1im_CG
    103      21    3   0.272000  1.628101e+01  1.415062e+01  7.912684e+00  # TN2qx c8c1im_CG
    104      21    4   0.104000  1.514189e+01  1.163552e+01  9.670979e+00  # SC3 c8c1im_CG
    105      21    5   0.000000  1.548201e+01  9.352703e+00  1.352934e+01  # C1 c8c1im_CG
    106      22    1   0.296000 -2.387845e+01 -1.202516e+01 -1.004858e+01  # TN2q c8c1im_CG
    107      22    2   0.128000 -2.238578e+01 -1.377828e+01 -7.761914e+00  # TC6 c8c1im_CG
    108      22    3   0.272000 -2.321051e+01 -1.588296e+01 -9.558751e+00  # TN2qx c8c1im_CG
    109      22    4   0.104000 -2.064911e+01 -1.778989e+01 -1.027830e+01  # SC3 c8c1im_CG
    110      22    5   0.000000 -1.830901e+01 -2.144954e+01 -9.118619e+00  # C1 c8c1im_CG
    111      23    1   0.296000  6.820674e+00 -3.133659e+00  5.941136e+00  # TN2q c8c1im_CG
    112      23    2   0.128000  8.124190e+00 -3.844811e+00  8.826524e+00  # TC6 c8c1im_CG
    113      23    3   0.272000  8.916531e+00 -6.178409e+00  7.321548e+00  # TN2qx c8c1im_CG
    114      23    4   0.104000  1.213474e+01 -6.672276e+00  7.659403e+00  # SC3 c8c1im_CG
    115      23    5   0.000000  1.534115e+01 -8.713112e+00  1.006104e+01  # C1 c8c1im_CG
    116      24    1   0.296000 -8.519955e+00  1.419238e+01  2.437761e+01  # TN2q c8c1im_CG
    117      24    2   0.128000 -9.772439e+00  1.205234e+01  2.228431e+01  # TC6 c8c1im_CG
    118      24    3   0.272000 -1.160581e+01  1.425327e+01  2.191947e+01  # TN2qx c8c1im_CG
    119      24    4   0.104000 -1.187767e+01  1.494973e+01  1.873263e+01  # SC3 c8c1im_CG
    120      24    5   0.000000 -1.413403e+01  1.411647e+01  1.493416e+01  # C1 c8c1im_CG
    121      25    1   0.296000  1.794289e+01 -1.330155e+01 -1.840689e+01  # TN2q c8c1im_CG
    122      25    2   0.128000  1.734708e+01 -1.580177e+01 -1.642593e+01  # TC6 c8c1im_CG
    123      25    3   0.272000  1.619079e+01 -1.364819e+01 -1.488856e+01  # TN2qx c8c1im_CG
    124      25    4   0.104000  1.313665e+01 -1.443229e+01 -1.400973e+01  # SC3 c8c1im_CG
    125      25    5   0.000000  1.055978e+01 -1.634910e+01 -1.086338e+01  # C1 c8c1im_CG
    126      26    1   0.296000  1.548615e+00  1.045027e+00  1.393880e+01  # TN2q c8c1im_CG
    127      26    2   0.128000  1.472770e+00  4.288778e+00  1.388703e+01  # TC6 c8c1im_CG
    128      26    3   0.272000 -1.357075e+00  3.713968e+00  1.389011e+01  # TN2qx c8c1im_CG
    129      26    4   0.104000 -2.829592e+00  5.419490e+00  1.626452e+01  # SC3 c8c1im_CG
    130      26    5   0.000000 -4.912022e+00  9.259991e+00  1.732656e+01  # C1 c8c1im_CG
    131      27    1   0.296000 -1.099413e+01 -1.600742e+01 -2.731938e+00  # TN2q c8c1im_CG
    132      27    2   0.128000 -7.866725e+00 -1.575339e+01 -3.559666e+00  # TC6 c8c1im_CG
    133      27    3   0.272000 -7.604243e+00 -1.625264e+01 -7.276540e-01  # TN2qx c8c1im_CG
    134      27    4   0.104000 -5.506690e+00 -1.871556e+01 -2.284460e-01  # SC3 c8c1im_CG
    135      27    5   0.000000 -1.212033e+00 -1.984336e+01  4.771790e-01  # C1 c8c1im_CG
    136      28    1   0.296000  1.718770e+01  2.554570e-01 -5.578171e+00  # TN2q c8c1im_CG
    137      28    2   0.128000  1.411312e+01 -6.564760e-01 -5.082521e+00  # TC6 c8c1im_CG
    138      28    3   0.272000  1.375918e+01  1.126980e+00 -7.325833e+00  # TN2qx c8c1im_CG
    139      28    4   0.104000  1.203018e+01 -3.705770e-01 -9.667374e+00  # SC3 c8c1im_CG
    140      28    5   0.000000  7.919725e+00 -1.174246e+00 -1.130206e+01  # C1 c8c1im_CG
    141      29    1   0.296000 -1.802121e+01  1.621105e+01  1.085872e+01  # TN2q c8c1im_CG
    142      29    2   0.128000 -1.780490e+01  1.307033e+01  1.007169e+01  # TC6 c8c1im_CG
    143      29    3   0.272000 -1.559190e+01  1.328644e+01  1.191407e+01  # TN2qx c8c1im_CG
    144      29    4   0.104000 -1.581370e+01  1.094322e+01  1.418894e+01  # SC3 c8c1im_CG
    145      29    5   0.000000 -1.466908e+01  6.742112e+00  1.530897e+01  # C1 c8c1im_CG
    146      30    1   0.296000  1.066360e+01 -4.723930e-01  2.284017e+01  # TN2q c8c1im_CG
    147      30    2   0.128000  7.894262e+00 -2.159809e+00  2.272288e+01  # TC6 c8c1im_CG
    148      30    3   0.272000  7.322087e+00 -1.074270e-01  2.077383e+01  # TN2qx c8c1im_CG
    149      30    4   0.104000  6.284724e+00 -1.483376e+00  1.799074e+01  # SC3 c8c1im_CG
    150      30    5   0.000000  2.708487e+00 -2.895882e+00  1.566066e+01  # C1 c8c1im_CG
    151      31    1   0.296000  2.197302e+01 -2.289923e+01 -2.056573e+01  # TN2q c8c1im_CG
    152      31    2   0.128000  2.012716e+01 -2.088210e+01 -1.881805e+01  # TC6 c8c1im_CG
    153      31    3   0.272000  2.264653e+01 -1.947397e+01 -1.872653e+01  # TN2qx c8c1im_CG
    154      31    4   0.104000  2.220574e+01 -1.635846e+01 -1.962886e+01  # SC3 c8c1im_CG
    155      31    5   0.000000  2.128712e+01 -1.218645e+01 -1.822729e+01  # C1 c8c1im_CG
    156      32    1   0.296000 -1.681605e+01 -9.786731e+00  6.907800e-01  # TN2q c8c1im_CG
    157      32    2   0.128000 -1.502514e+01 -1.211418e+01  2.071346e+00  # TC6 c8c1im_CG
    158      32    3   0.272000 -1.606399e+01 -1.355503e+01 -2.053150e-01  # TN2qx c8c1im_CG
    159      32    4   0.104000 -1.360620e+01 -1.499339e+01 -1.819411e+00  # SC3 c8c1im_CG
    160      32    5   0.000000 -1.111002e+01 -1.871060e+01 -2.226094e+00  # C1 c8c1im_CG
    161      33    1   0.296000 -1.510097e+01 -9.557269e+00  4.034754e+00  # TN2q c8c1im_CG
    162      33    2   0.128000 -1.712237e+01 -7.634784e+00  2.376949e+00  # TC6 c8c1im_CG
    163      33    3   0.272000 -1.844485e+01 -7.670240e+00  4.943703e+00  # TN2qx c8c1im_CG
    164      33    4   0.104000 -1.905723e+01 -4.604830e+00  5.914881e+00  # SC3 c8c1im_CG
    165      33    5   0.000000 -2.202004e+01 -1.223437e+00  5.872138e+00  # C1 c8c1im_CG
    166      34    1   0.296000  1.112970e+01 -1.751399e+01 -7.550070e-01  # TN2q c8c1im_CG
    167      34    2   0.128000  1.134139e+01 -1.509549e+01 -2.908234e+00  # TC6 c8c1im_CG
    168      34    3   0.272000  8.783417e+00 -1.621255e+01 -3.648077e+00  # TN2qx c8c1im_CG
    169      34    4   0.104000  6.532644e+00 -1.383879e+01 -3.767230e+00  # SC3 c8c1im_CG
    170      34    5   0.000000  4.504781e+00 -1.077837e+01 -6.362519e+00  # C1 c8c1im_CG
    171      35    1   0.296000  1.781490e+01 -9.556524e+00  9.202923e+00  # TN2q c8c1im_CG
    172      35    2   0.128000  1.603308e+01 -7.191933e+00  7.874706e+00  # TC6 c8c1im_CG
    173      35    3   0.272000  1.619989e+01 -9.017365e+00  5.643471e+00  # TN2qx c8c1im_CG
    174      35    4   0.104000  1.320197e+01 -9.602585e+00  4.466652e+00  # SC3 c8c1im_CG
    175      35    5   0.000000  1.005668e+01 -8.313745e+00  1.523873e+00  # C1 c8c1im_CG
    176      36    1   0.296000 -2.307523e+01  1.726896e+01 -2.029397e+01  # TN2q c8c1im_CG
    177      36    2   0.128000 -2.370045e+01  1.416676e+01 -2.101215e+01  # TC6 c8c1im_CG
    178      36    3   0.272000 -2.128440e+01  1.456599e+01 -2.254243e+01  # TN2qx c8c1im_CG
    179      36    4   0.104000 -1.913549e+01  1.219419e+01 -2.185562e+01  # SC3 c8c1im_CG
    180      36    5   0.000000 -1.764302e+01  8.104032e+00 -2.297680e+01  # C1 c8c1im_CG
    181      37    1   0.296000  1.700805e+01  8.970495e+00 -1.767290e+01  # TN2q c8c1im_CG
    182      37    2   0.128000  1.757002e+01  1.086190e+01 -1.509664e+01  # TC6 c8c1im_CG
    183      37    3   0.272000  2.027952e+01  1.036098e+01 -1.596040e+01  # TN2qx c8c1im_CG
    184      37    4   0.104000  2.189010e+01  1.319596e+01 -1.625002e+01  # SC3 c8c1im_CG
    185      37    5   0.000000  2.447709e+01  1.622137e+01 -1.415997e+01  # C1 c8c1im_CG
    186      38    1   0.296000 -5.204375e+00 -7.958596e+00  1.757174e+01  # TN2q c8c1im_CG
    187      38    2   0.128000 -6.217181e+00 -1.102812e+01  1.728439e+01  # TC6 c8c1im_CG
    188      38    3   0.272000 -3.498022e+00 -1.146885e+01  1.815063e+01  # TN2qx c8c1im_CG
    189      38    4   0.104000 -3.468849e+00 -1.351622e+01  2.070452e+01  # SC3 c8c1im_CG
    190      38    5   0.000000 -3.224789e+00 -1.781113e+01  2.201148e+01  # C1 c8c1im_CG
    191      39    1   0.296000  2.195766e+01 -1.375256e+01  1.955610e+00  # TN2q c8c1im_CG
    192      39    2   0.128000  2.435977e+01 -1.219500e+01  3.483433e+00  # TC6 c8c1im_CG
    193      39    3   0.272000  2.207238e+01 -1.091105e+01  4.690805e+00  # TN2qx c8c1im_CG
    194      39    4   0.104000  2.235064e+01 -1.099373e+01  7.951275e+00  # SC3 c8c1im_CG
    195      39    5   0.000000  2.386804e+01 -8.847750e+00  1.159904e+01  # C1 c8c1im_CG
    196      40    1   0.296000  1.767063e+01 -1.729527e+00  1.834565e+01  # TN2q c8c1im_CG
    197      40    2   0.128000  1.744498e+01 -4.960667e+00  1.814771e+01  # TC6 c8c1im_CG
    198      40    3   0.272000  1.720767e+01 -4.608383e+00  2.100394e+01  # TN2qx c8c1im_CG
    199      40    4   0.104000  1.456492e+01 -6.199600e+00  2.209886e+01  # SC3 c8c1im_CG
    200      40    5   0.000000  1.298534e+01 -1.007701e+01  2.373730e+01  # C1 c8c1im_CG
    201      41    1   0.296000  1.941979e+01 -9.341860e-01  1.038247e+01  # TN2q c8c1im_CG
    202      41    2   0.128000  1.756598e+01  1.243687e+00  1.191564e+01  # TC6 c8c1im_CG
    203      41    3   0.272000  1.952217e+01  7.047600e-01  1.397023e+01  # TN2qx c8c1im_CG
    204      41    4   0.104000  2.076877e+01  3.521914e+00  1.507682e+01  # SC3 c8c1im_CG
    205      41    5   0.000000  2.037168e+01  6.813438e+00  1.811362e+01  # C1 c8c1im_CG
    206      42    1   0.296000  5.371370e-01  2.024304e+01 -1.856177e+01  # TN2q c8c1im_CG
    207      42    2   0.128000  3.503661e+00  2.125618e+01 -1.940060e+01  # TC6 c8c1im_CG
    208      42    3   0.272000  3.789427e+00  2.116876e+01 -1.652847e+01  # TN2qx c8c1im_CG
    209      42    4   0.104000  6.461238e+00  1.945238e+01 -1.573450e+01  # SC3 c8c1im_CG
    210      42    5   0.000000  1.087193e+01  1.964006e+01 -1.488334e+01  # C1 c8c1im_CG
    211      43    1   0.296000  2.209449e+01  9.158089e+00 -1.197891e+01  # TN2q c8c1im_CG
    212      43    2   0.128000  2.132254e+01  8.691268e+00 -8.861773e+00  # TC6 c8c1im_CG
    213      43    3   0.272000  1.950144e+01  1.083299e+01 -9.521376e+00  # TN2qx c8c1im_CG
    214      43    4   0.104000  1.646114e+01  1.001501e+01 -8.625611e+00  # SC3 c8c1im_CG
    215      43    5   0.000000  1.340231e+01  1.015034e+01 -5.333329e+00  # C1 c8c1im_CG
    216      44    1   0.296000  1.321032e+01  3.724456e+00 -6.606803e+00  # TN2q c8c1im_CG
    217      44    2   0.128000  1.642244e+01  3.533379e+00 -7.026415e+00  # TC6 c8c1im_CG
    218      44    3   0.272000  1.552178e+01  1.952317e+00 -9.268623e+00  # TN2qx c8c1im_CG
    219      44    4   0.104000  1.694504e+01  3.018704e+00 -1.201673e+01  # SC3 c8c1im_CG
    220      44    5   0.000000  2.046956e+01  2.589430e+00 -1.477488e+01  # C1 c8c1im_CG
    221      45    1   0.296000 -1.266526e+01 -1.547206e+01 -1.248091e+01  # TN2q c8c1im_CG
    222      45    2   0.128000 -1.052574e+01 -1.376383e+01 -1.073886e+01  # TC6 c8c1im_CG
    223      45    3   0.272000 -1.115189e+01 -1.586358e+01 -8.858057e+00  # TN2qx c8c1im_CG
    224      45    4   0.104000 -8.385323e+00 -1.722159e+01 -7.754932e+00  # SC3 c8c1im_CG
    225      45    5   0.000000 -5.197150e+00 -1.709187e+01 -4.587497e+00  # C1 c8c1im_CG
    226      46    1   0.296000  2.902776e+00  4.814020e+00  3.999620e-01  # TN2q c8c1im_CG
    227      46    2   0.128000  4.084646e+00  7.833547e+00  5.264460e-01  # TC6 c8c1im_CG
    228      46    3   0.272000  6.533805e+00  6.319350e+00  7.438680e-01  # TN2qx c8c1im_CG
    229      46    4   0.104000  8.697923e+00  7.393260e+00 -1.464806e+00  # SC3 c8c1im_CG
    230      46    5   0.000000  1.205567e+01  1.027255e+01 -2.270518e+00  # C1 c8c1im_CG
    231      47    1   0.296000 -1.817704e+01 -2.200626e+01 -1.737843e+00  # TN2q c8c1im_CG
    232      47    2   0.128000 -2.110202e+01 -2.073816e+01 -1.132232e+00  # TC6 c8c1im_CG
    233      47    3   0.272000 -1.964430e+01 -1.977500e+01  1.166854e+00  # TN2qx c8c1im_CG
    234      47    4   0.104000 -2.006789e+01 -1.654342e+01  1.470834e+00  # SC3 c8c1im_CG
    235      47    5   0.000000 -2.257205e+01 -1.328750e+01  3.298973e+00  # C1 c8c1im_CG
    236      48    1   0.296000 -1.657187e+01 -4.904311e+00 -2.499993e+01  # TN2q c8c1im_CG
    237      48    2   0.128000 -1.445475e+01 -4.526048e+00 -2.256989e+01  # TC6 c8c1im_CG
    238      48    3   0.272000 -1.466685e+01 -1.796807e+00 -2.348897e+01  # TN2qx c8c1im_CG
    239      48    4   0.104000 -1.531614e+01  1.752190e-01 -2.095826e+01  # SC3 c8c1im_CG
    240      48    5   0.000000 -1.356023e+01  2.753532e+00 -1.772052e+01  # C1 c8c1im_CG
    241      49    1   0.296000 -1.516924e+00 -9.327168e+00 -1.330917e+01  # TN2q c8c1im_CG
    242      49    2   0.128000 -2.054245e+00 -6.239936e+00 -1.415216e+01  # TC6 c8c1im_CG
    243      49    3   0.272000 -4.757041e+00 -7.255688e+00 -1.419193e+01  # TN2qx c8c1im_CG
    244      49    4   0.104000 -6.694054e+00 -5.315975e+00 -1.240296e+01  # SC3 c8c1im_CG
    245      49    5   0.000000 -9.405860e+00 -1.730103e+00 -1.244217e+01  # C1 c8c1im_CG
    246      50    1   0.296000 -3.100750e-01  1.848019e+01  8.233804e+00  # TN2q c8c1im_CG
    247      50    2   0.128000  2.514026e+00  1.746215e+01  9.466036e+00  # TC6 c8c1im_CG
    248      50    3   0.272000  3.238611e+00  1.772461e+01  6.683136e+00  # TN2qx c8c1im_CG
    249      50    4   0.104000  5.959792e+00  1.952391e+01  6.413640e+00  # SC3 c8c1im_CG
    250      50    5   0.000000  1.045225e+01  1.945142e+01  6.251034e+00  # C1 c8c1im_CG
    251      51    1   0.296000 -2.567203e+00  1.916526e+01 -1.307400e+01  # TN2q c8c1im_CG
    252      51    2   0.128000 -5.552595e+00  1.850271e+01 -1.198828e+01  # TC6 c8c1im_CG
    253      51    3   0.272000 -4.492616e+00  1.993779e+01 -9.717722e+00  # TN2qx c8c1im_CG
    254      51    4   0.104000 -6.558638e+00  2.232610e+01 -8.856053e+00  # SC3 c8c1im_CG
    255      51    5   0.000000 -1.007934e+01  2.343706e+01 -6.290063e+00  # C1 c8c1im_CG
    256      52    1   0.296000  1.033670e+01 -4.971812e+00  1.083151e+01  # TN2q c8c1im_CG
    257      52    2   0.128000  1.349799e+01 -5.317240e+00  1.018557e+01  # TC6 c8c1im_CG
    258      52    3   0.272000  1.264560e+01 -8.072448e+00  1.004176e+01  # TN2qx c8c1im_CG
    259      52    4   0.104000  1.367274e+01 -9.402846e+00  7.232854e+00  # SC3 c8c1im_CG
    260      52    5   0.000000  1.698211e+01 -1.165887e+01  5.190207e+00  # C1 c8c1im_CG
    261      53    1   0.296000  4.097320e+00  8.466460e-01 -2.319098e+01  # TN2q c8c1im_CG
    262      53    2   0.128000  4.269830e+00 -2.363987e+00 -2.275231e+01  # TC6 c8c1im_CG
    263      53    3   0.272000  1.654193e+00 -1.839560e+00 -2.164694e+01  # TN2qx c8c1im_CG
    264      53    4   0.104000 -5.408460e-01 -3.860965e+00 -2.299254e+01  # SC3 c8c1im_CG
    265      53    5   0.000000 -2.609316e+00 -7.839224e+00 -2.266270e+01  # C1 c8c1im_CG
    266      54    1   0.296000  1.817579e+01  1.729976e+01 -1.775662e+01  # TN2q c8c1im_CG
    267      54    2   0.128000  1.898123e+01  1.803328e+01 -1.469989e+01  # TC6 c8c1im_CG
    268      54    3   0.272000  1.613493e+01  1.851062e+01 -1.460426e+01  # TN2qx c8c1im_CG
    269      54    4   0.104000  1.482868e+01  1.690479e+01 -1.206852e+01  # SC3 c8c1im_CG
    270      54    5   0.000000  1.371525e+01  1.712153e+01 -7.717980e+00  # C1 c8c1im_CG
    271      55    1   0.296000 -3.878949e+00 -1.092438e+01 -1.281498e+01  # TN2q c8c1im_CG
    272      55    2   0.128000 -5.950502e+00 -1.037455e+01 -1.037844e+01  # TC6 c8c1im_CG
    273      55    3   0.272000 -6.876317e+00 -1.296434e+01 -1.125838e+01  # TN2qx c8c1im_CG
    274      55    4   0.104000 -7.071889e+00 -1.499696e+01 -8.700036e+00  # SC3 c8c1im_CG
    275      55    5   0.000000 -9.706120e+00 -1.659250e+01 -5.424520e+00  # C1 c8c1im_CG
    276      56    1   0.296000  3.016942e+00 -1.405957e+01 -1.160206e+01  # TN2q c8c1im_CG
    277      56    2   0.128000  5.056510e-01 -1.207521e+01 -1.213696e+01  # TC6 c8c1im_CG
    278      56    3   0.272000  1.130185e+00 -1.137989e+01 -9.404757e+00  # TN2qx c8c1im_CG
    279      56    4   0.104000  1.439758e+00 -8.132556e+00 -9.132934e+00  # SC3 c8c1im_CG
    280      56    5   0.000000 -6.858080e-01 -4.263284e+00 -8.281688e+00  # C1 c8c1im_CG
    281      57    1   0.296000  3.944256e+00 -1.666894e+00  1.130695e+01  # TN2q c8c1im_CG
    282      57    2   0.128000  5.923714e+00  5.592640e-01  1.001997e+01  # TC6 c8c1im_CG
    283      57    3   0.272000  5.971296e+00 -1.432604e+00  7.929844e+00  # TN2qx c8c1im_CG
    284      57    4   0.104000  5.307775e+00 -2.835200e-02  5.048395e+00  # SC3 c8c1im_CG
    285      57    5   0.000000  7.037267e+00  1.974911e+00  1.413879e+00  # C1 c8c1im_CG
    286      58    1   0.296000  1.363230e+01 -1.723848e+01  2.504849e+00  # TN2q c8c1im_CG
    287      58    2   0.128000  1.478737e+01 -1.519408e+01  2.650790e-01  # TC6 c8c1im_CG
    288      58    3   0.272000  1.599709e+01 -1.408283e+01  2.639979e+00  # TN2qx c8c1im_CG
    289      58    4   0.104000  1.921571e+01 -1.371308e+01  2.172354e+00  # SC3 c8c1im_CG
    290      58    5   0.000000  2.246484e+01 -1.093872e+01  7.723500e-01  # C1 c8c1im_CG
    291      59    1   0.296000  1.226230e+01 -1.951009e+01 -3.254920e+00  # TN2q c8c1im_CG
    292      59    2   0.128000  1.259379e+01 -2.204567e+01 -1.257095e+00  # TC6 c8c1im_CG
    293      59    3   0.272000  1.535595e+01 -2.124945e+01 -1.530789e+00  # TN2qx c8c1im_CG
    294      59    4   0.104000  1.670972e+01 -2.091637e+01  1.430851e+00  # SC3 c8c1im_CG
    295      59    5   0.000000  1.896571e+01 -2.297592e+01  4.729738e+00  # C1 c8c1im_CG
    296      60    1   0.296000 -6.427251e+00  1.801656e+00  1.456100e+01  # TN2q c8c1im_CG
    297      60    2   0.128000 -9.348160e+00  5.589200e-01  1.388702e+01  # TC6 c8c1im_CG
    298      60    3   0.272000 -7.915170e+00 -1.852743e+00  1.457175e+01  # TN2qx c8c1im_CG
    299      60    4   0.104000 -9.602140e+00 -3.544088e+00  1.680970e+01  # SC3 c8c1im_CG
    300      60    5   0.000000 -1.270607e+01 -6.724788e+00  1.748993e+01  # C1 c8c1im_CG
    301      61    1   0.296000 -7.359469e+00 -6.353066e+00 -1.892869e+01  # TN2q c8c1im_CG
    302      61    2   0.128000 -9.607017e+00 -5.689528e+00 -1.668401e+01  # TC6 c8c1im_CG
    303      61    3   0.272000 -7.356271e+00 -4.247442e+00 -1.559178e+01  # TN2qx c8c1im_CG
    304      61    4   0.104000 -8.235742e+00 -1.166039e+00 -1.492364e+01  # SC3 c8c1im_CG
    305      61    5   0.000000 -9.894476e+00  1.625446e+00 -1.181396e+01  # C1 c8c1im_CG
    306      62    1   0.296000  2.671861e+00 -1.970068e+01  6.972321e+00  # TN2q c8c1im_CG
    307      62    2   0.128000  1.436544e+00 -1.959052e+01  9.971023e+00  # TC6 c8c1im_CG
    308      62    3   0.272000 -5.581460e-01 -1.806715e+01  8.543087e+00  # TN2qx c8c1im_CG
    309      62    4   0.104000 -3.536881e+00 -1.925439e+01  9.200753e+00  # SC3 c8c1im_CG
    310      62    5   0.000000 -7.119998e+00 -1.899111e+01  1.190369e+01  # C1 c8c1im_CG
    311      63    1   0.296000 -5.402630e+00 -3.563573e+00 -2.002055e+00  # TN2q c8c1im_CG
    312      63    2   0.128000 -5.926303e+00 -6.501251e+00 -7.268410e-01  # TC6 c8c1im_CG
    313      63    3   0.272000 -3.192572e+00 -6.808044e+00 -1.604927e+00  # TN2qx c8c1im_CG
    314      63    4   0.104000 -1.360646e+00 -7.944798e+00  8.581540e-01  # SC3 c8c1im_CG