ITEM: TIMESTEP
0
ITEM: NUMBER OF ATOMS
10000
ITEM: BOX BOUNDS pp pp pp
-3.5355339000000001e+01 3.5355339000000001e+01
-3.5355339000000001e+01 3.5355339000000001e+01
-1.0000000000000000e+02 1.0000000000000000e+02
ITEM: ATOMS id type xs ys zs
1 1 0.0149777 0.0150021 0.266627
2 1 0.0650077 0.0149942 0.266626
21 1 0.0150058 0.0650029 0.266629
22 1 0.064989 0.0649989 0.266628
401 1 0.039995 0.0399833 0.27396
402 1 0.0899877 0.039995 0.27396
421 1 0.0399969 0.0900219 0.273959
422 1 0.089998 0.0899997 0.273958
801 1 0.0149829 0.0149991 0.281257
802 1 0.065004 0.0149915 0.281258
821 1 0.0150082 0.0650083 0.28126
822 1 0.0649888 0.065005 0.281259
3 1 0.114982 0.0149862 0.266626
4 1 0.164999 0.0149965 0.266623
23 1 0.114988 0.0649869 0.266625
24 1 0.164991 0.0649849 0.266624
403 1 0.139984 0.0399845 0.273957
404 1 0.190009 0.0399951 0.273955
423 1 0.139991 0.0899914 0.273956
424 1 0.189992 0.0899957 0.273956
803 1 0.114987 0.0149876 0.28126
804 1 0.165006 0.0150032 0.281256
823 1 0.114994 0.0649915 0.281257
824 1 0.164994 0.0649854 0.281253
5 1 0.215014 0.0149829 0.266624
6 1 0.264996 0.0149962 0.266625
25 1 0.215004 0.0650045 0.266622
26 1 0.265004 0.0649968 0.266624
405 1 0.24 0.0400005 0.273957
406 1 0.290005 0.0399899 0.273957
425 1 0.240007 0.0899942 0.273957
426 1 0.290002 0.0899954 0.273958
805 1 0.215006 0.0149911 0.281257
806 1 0.264993 0.0150069 0.281258
825 1 0.214999 0.0650031 0.281255
826 1 0.265004 0.0649947 0.281257
7 1 0.314994 0.0149846 0.266627
8 1 0.365007 0.0149887 0.266628
27 1 0.315001 0.0649964 0.266625
28 1 0.365019 0.064985 0.266628
407 1 0.340003 0.0399852 0.273958
408 1 0.390006 0.0399735 0.273962
427 1 0.340014 0.0899792 0.273958
428 1 0.390008 0.0899914 0.27396
807 1 0.314995 0.0149922 0.281253
808 1 0.364996 0.0149941 0.281256
827 1 0.315 0.0649958 0.281255
828 1 0.365012 0.0649866 0.281259
9 1 0.414998 0.014991 0.266629
10 1 0.465 0.0149996 0.266627
29 1 0.414993 0.0649848 0.266628
30 1 0.464996 0.0649884 0.266627
409 1 0.439995 0.0399854 0.273961
410 1 0.489997 0.0399918 0.273961
429 1 0.439993 0.0899829 0.27396
430 1 0.489996 0.0899932 0.273959
809 1 0.415005 0.0149924 0.281257
810 1 0.465001 0.0149984 0.281257
829 1 0.414995 0.0649883 0.281261
830 1 0.464998 0.0649946 0.281259
11 1 0.514994 0.0149951 0.266626
12 1 0.564995 0.0150068 0.266625
31 1 0.514991 0.0649899 0.266626
32 1 0.564993 0.0649884 0.266626
411 1 0.539987 0.0399971 0.27396
412 1 0.590001 0.0400026 0.273958
431 1 0.539994 0.0899926 0.273958
432 1 0.589997 0.0899927 0.273958
811 1 0.514998 0.0149906 0.28126
812 1 0.565001 0.0150025 0.281259
831 1 0.514993 0.0649976 0.281256
832 1 0.564996 0.0649936 0.281256
13 1 0.615002 0.0150001 0.266624
14 1 0.665015 0.0149889 0.266624
33 1 0.615008 0.0649936 0.266625
34 1 0.665003 0.0650045 0.266624
413 1 0.640011 0.0399932 0.273957
414 1 0.690005 0.0400005 0.273956
433 1 0.64 0.0900142 0.273956
434 1 0.690007 0.0900109 0.273955
813 1 0.615003 0.0149993 0.281256
814 1 0.665014 0.0149907 0.281256
833 1 0.615012 0.064997 0.281255
834 1 0.665004 0.065006 0.281254
15 1 0.715004 0.0149916 0.266624
16 1 0.765008 0.0149888 0.266624
35 1 0.715008 0.0650024 0.266623
36 1 0.765005 0.0649992 0.266623
415 1 0.740003 0.0399951 0.273956
416 1 0.790004 0.0399958 0.273956
435 1 0.740006 0.0900067 0.273956
436 1 0.79 0.0900053 0.273956
815 1 0.715003 0.0149983 0.281256
816 1 0.765006 0.0149976 0.281257
835 1 0.715006 0.0650031 0.281253
836 1 0.765003 0.0649994 0.281254
17 1 0.815004 0.0149885 0.266625
18 1 0.865001 0.0149982 0.266627
37 1 0.815 0.0650022 0.266623
38 1 0.864995 0.0649985 0.266624
417 1 0.839997 0.0399978 0.273958
418 1 0.890004 0.0400106 0.273958
437 1 0.839997 0.0900043 0.273957
438 1 0.890013 0.0899839 0.273958
817 1 0.815001 0.0149976 0.281259
818 1 0.865003 0.0150061 0.281258
837 1 0.814998 0.0650026 0.281255
838 1 0.864991 0.0650012 0.281256
19 1 0.914985 0.0149869 0.266628
20 1 0.965017 0.0149844 0.266628
39 1 0.915025 0.0649889 0.266628
40 1 0.964982 0.0649901 0.266628
419 1 0.940007 0.0399708 0.273961
420 1 0.989997 0.0400088 0.273961
439 1 0.940005 0.0900135 0.273959
440 1 0.989984 0.0899981 0.273959
819 1 0.91498 0.0149886 0.28126
820 1 0.965019 0.0149831 0.281262
839 1 0.915023 0.0649912 0.281257
840 1 0.964984 0.0649944 0.281259
41 1 0.0149831 0.115011 0.266627
42 1 0.0650062 0.115011 0.266625
61 1 0.0149987 0.165005 0.266625
62 1 0.0650023 0.164997 0.266625
441 1 0.0399953 0.140001 0.273959
442 1 0.0900076 0.140005 0.273958
461 1 0.0400017 0.189988 0.273959
462 1 0.0900036 0.190001 0.273958
841 1 0.01498 0.115012 0.281255
842 1 0.0650106 0.115011 0.281257
861 1 0.014995 0.165 0.281257
862 1 0.0650045 0.164996 0.281259
43 1 0.114998 0.115002 0.266624
44 1 0.164993 0.114995 0.266623
63 1 0.114995 0.164999 0.266622
64 1 0.165015 0.164996 0.266624
443 1 0.140001 0.140009 0.273956
444 1 0.19 0.139992 0.273957
463 1 0.140006 0.189994 0.273955
464 1 0.190001 0.190013 0.273957
843 1 0.115004 0.115 0.281256
844 1 0.164992 0.114994 0.281255
863 1 0.115002 0.165002 0.281254
864 1 0.165011 0.165 0.281252
45 1 0.215004 0.114989 0.266624
46 1 0.264997 0.114996 0.266624
65 1 0.214998 0.164999 0.266624
66 1 0.264996 0.164999 0.266624
445 1 0.239994 0.139998 0.273957
446 1 0.290006 0.139993 0.273956
465 1 0.239991 0.190009 0.273957
466 1 0.289998 0.190011 0.273955
845 1 0.215002 0.114988 0.281257
846 1 0.265001 0.115001 0.281257
865 1 0.214997 0.165 0.281256
866 1 0.265003 0.165001 0.281255
47 1 0.315013 0.114985 0.266624
48 1 0.365008 0.11499 0.266624
67 1 0.315002 0.165003 0.266622
68 1 0.365008 0.165002 0.266622
447 1 0.340006 0.139999 0.273955
448 1 0.390002 0.139998 0.273957
467 1 0.340006 0.190006 0.273954
468 1 0.390007 0.190007 0.273957
847 1 0.315012 0.114992 0.281256
848 1 0.365002 0.114999 0.281258
867 1 0.315001 0.165005 0.281252
868 1 0.365003 0.165004 0.281254
49 1 0.41501 0.115003 0.266627
50 1 0.464988 0.114992 0.266626
69 1 0.415005 0.164997 0.266625
70 1 0.46501 0.165007 0.266626
449 1 0.440013 0.140009 0.27396
450 1 0.489997 0.139991 0.273959
469 1 0.440003 0.189996 0.273959
470 1 0.490013 0.190015 0.273959
849 1 0.415006 0.115008 0.28126
850 1 0.46499 0.114991 0.281259
869 1 0.414996 0.164999 0.281258
870 1 0.465013 0.165009 0.28126
51 1 0.514995 0.114997 0.266626
52 1 0.564998 0.114997 0.266627
71 1 0.514995 0.164993 0.266628
72 1 0.56499 0.165007 0.266628
451 1 0.539998 0.139994 0.27396
452 1 0.58998 0.140005 0.273961
471 1 0.539984 0.190007 0.273959
472 1 0.58999 0.190001 0.273962
851 1 0.514996 0.114992 0.281255
852 1 0.564996 0.114988 0.281256
871 1 0.514994 0.164993 0.281257
872 1 0.564986 0.165007 0.281261
53 1 0.614985 0.115013 0.266627
54 1 0.665005 0.115023 0.266625
73 1 0.614981 0.165 0.266627
74 1 0.664993 0.165006 0.266626
453 1 0.639991 0.140007 0.273959
454 1 0.690014 0.140021 0.273958
473 1 0.639986 0.189999 0.273959
474 1 0.690002 0.189999 0.273959
853 1 0.61499 0.115006 0.281257
854 1 0.665009 0.115015 0.281254
873 1 0.614989 0.164998 0.281261
874 1 0.664996 0.165002 0.281257
55 1 0.715014 0.115018 0.266625
56 1 0.765006 0.115016 0.266624
75 1 0.715022 0.165021 0.266626
76 1 0.765005 0.165027 0.266628
455 1 0.740012 0.140019 0.273959
456 1 0.789998 0.140022 0.27396
475 1 0.74001 0.190027 0.273961
476 1 0.790013 0.190018 0.273963
855 1 0.71501 0.11501 0.281255
856 1 0.765005 0.115006 0.281257
875 1 0.715015 0.165015 0.281259
876 1 0.765003 0.165019 0.281262
57 1 0.814998 0.115016 0.266625
58 1 0.865011 0.114998 0.266627
77 1 0.815006 0.165012 0.266629
78 1 0.865 0.165021 0.266629
457 1 0.84001 0.14001 0.27396
458 1 0.889999 0.140016 0.27396
477 1 0.839997 0.190019 0.273963
478 1 0.890003 0.190013 0.273963
857 1 0.814997 0.115007 0.281257
858 1 0.865008 0.114991 0.281258
877 1 0.815007 0.165001 0.281262
878 1 0.864998 0.165011 0.281263
59 1 0.914993 0.115005 0.266628
60 1 0.964994 0.115011 0.266627
79 1 0.914996 0.165015 0.266628
80 1 0.964983 0.165026 0.266628
459 1 0.939997 0.140008 0.27396
460 1 0.989981 0.140017 0.273958
479 1 0.939984 0.190013 0.273962
480 1 0.990002 0.190007 0.273959
859 1 0.91499 0.115004 0.281257
860 1 0.965 0.115011 0.281252
879 1 0.914997 0.165005 0.281262
880 1 0.96499 0.165018 0.281257
81 1 0.0150221 0.21501 0.266627
82 1 0.0649942 0.214996 0.266626
101 1 0.0150053 0.265 0.266625
102 1 0.0650322 0.265018 0.266627
481 1 0.0400256 0.240021 0.273959
482 1 0.090005 0.23999 0.27396
501 1 0.0400122 0.289994 0.27396
502 1 0.0900364 0.290023 0.27396
881 1 0.0150196 0.215013 0.281259
882 1 0.0649931 0.214992 0.28126
901 1 0.014998 0.265001 0.281258
902 1 0.0650293 0.265016 0.281262
83 1 0.115002 0.215 0.266625
84 1 0.164998 0.214999 0.266624
103 1 0.114995 0.264996 0.266627
104 1 0.164999 0.265019 0.266627
483 1 0.140008 0.240002 0.273957
484 1 0.189972 0.24 0.273959
503 1 0.139986 0.290011 0.27396
504 1 0.189991 0.290011 0.273962
883 1 0.11501 0.214993 0.281254
884 1 0.16499 0.21499 0.28125
903 1 0.115 0.264989 0.281258
904 1 0.164993 0.265013 0.281259
85 1 0.214999 0.215026 0.266627
86 1 0.26499 0.215017 0.266624
105 1 0.214977 0.265002 0.266627
106 1 0.26501 0.265013 0.266626
485 1 0.239999 0.240023 0.273959
486 1 0.290005 0.240003 0.273957
505 1 0.239991 0.289986 0.273962
506 1 0.289998 0.290027 0.27396
885 1 0.215001 0.215019 0.281256
886 1 0.264996 0.215009 0.281256
905 1 0.214979 0.264995 0.281263
906 1 0.265017 0.265005 0.28126
87 1 0.315006 0.215009 0.266621
88 1 0.365008 0.215015 0.266623
107 1 0.314984 0.265017 0.266625
108 1 0.365015 0.265013 0.266626
487 1 0.339999 0.240021 0.273956
488 1 0.390013 0.240012 0.273958
507 1 0.339999 0.290003 0.273958
508 1 0.389997 0.290029 0.273961
887 1 0.315008 0.215002 0.281253
888 1 0.365002 0.21501 0.281255
907 1 0.314988 0.265009 0.281256
908 1 0.365008 0.265006 0.281257
89 1 0.415013 0.215006 0.266625
90 1 0.464987 0.215 0.266627
109 1 0.415002 0.265025 0.266628
110 1 0.464998 0.265017 0.266627
489 1 0.440003 0.240019 0.27396
490 1 0.489992 0.240002 0.273957
509 1 0.440009 0.290009 0.273962
510 1 0.49001 0.290005 0.273959
889 1 0.415007 0.215002 0.281259
890 1 0.464991 0.215 0.281257
909 1 0.414996 0.265018 0.281262
910 1 0.465005 0.265009 0.281259
91 1 0.515002 0.215014 0.266626
92 1 0.564999 0.214994 0.266627
111 1 0.514996 0.265 0.266626
112 1 0.564999 0.265016 0.266626
491 1 0.540004 0.240008 0.273958
492 1 0.589982 0.240006 0.27396
511 1 0.539985 0.289994 0.27396
512 1 0.589999 0.289996 0.273961
891 1 0.515002 0.21502 0.281251
892 1 0.564993 0.214999 0.281258
911 1 0.514994 0.26499 0.281254
912 1 0.564994 0.265011 0.281259
93 1 0.614983 0.215003 0.266628
94 1 0.664994 0.21499 0.266625
113 1 0.614987 0.264994 0.266626
114 1 0.664998 0.265003 0.266624
493 1 0.640001 0.24 0.273957
494 1 0.689994 0.239999 0.273957
513 1 0.639993 0.289993 0.273957
514 1 0.690007 0.289993 0.273957
893 1 0.614992 0.215007 0.28126
894 1 0.664996 0.214992 0.281255
913 1 0.614997 0.264994 0.281258
914 1 0.664998 0.265004 0.281253
95 1 0.714997 0.214998 0.266626
96 1 0.765013 0.215004 0.266628
115 1 0.715008 0.264991 0.266626
116 1 0.764993 0.264992 0.266628
495 1 0.740003 0.239987 0.27396
496 1 0.790012 0.240009 0.27396
515 1 0.740002 0.289991 0.27396
516 1 0.790012 0.28997 0.273961
895 1 0.714986 0.215002 0.281258
896 1 0.765012 0.21501 0.28126
915 1 0.715 0.264991 0.281257
916 1 0.76499 0.264992 0.281258
97 1 0.815003 0.215004 0.266629
98 1 0.865004 0.214988 0.266628
117 1 0.815011 0.264991 0.266628
118 1 0.865005 0.264991 0.266627
497 1 0.84001 0.239999 0.27396
498 1 0.88999 0.239995 0.27396
517 1 0.840007 0.289975 0.27396
518 1 0.889986 0.289985 0.27396
897 1 0.815003 0.215011 0.281258
898 1 0.865003 0.214995 0.281259
917 1 0.815013 0.26499 0.281251
918 1 0.865006 0.264992 0.281251
99 1 0.914995 0.214999 0.266628
100 1 0.964991 0.214999 0.266627
119 1 0.914988 0.264993 0.266626
120 1 0.964997 0.265 0.266625
499 1 0.939987 0.240001 0.273959
500 1 0.989998 0.239996 0.273957
519 1 0.93998 0.289987 0.273959
520 1 0.99 0.290003 0.273957
899 1 0.914998 0.215009 0.28126
900 1 0.964999 0.215005 0.281259
919 1 0.914992 0.264994 0.281255
920 1 0.965005 0.265002 0.281257
121 1 0.0150139 0.314997 0.266625
122 1 0.0650061 0.314985 0.266626
141 1 0.0150029 0.364989 0.266626
142 1 0.0650125 0.365011 0.266626
521 1 0.0400223 0.34 0.273958
522 1 0.0900026 0.339991 0.273958
541 1 0.0400046 0.389994 0.273959
542 1 0.0900211 0.390001 0.27396
921 1 0.0150084 0.315 0.281258
922 1 0.0650017 0.31499 0.281257
941 1 0.0149965 0.364989 0.281257
942 1 0.0650097 0.365008 0.281258
123 1 0.115012 0.315016 0.266626
124 1 0.165002 0.314999 0.266628
143 1 0.114998 0.364995 0.266626
144 1 0.165007 0.365004 0.266626
523 1 0.140007 0.340008 0.273958
524 1 0.189999 0.340002 0.273961
543 1 0.139995 0.389987 0.27396
544 1 0.189987 0.390007 0.27396
923 1 0.115014 0.315026 0.28125
924 1 0.164995 0.315004 0.281258
943 1 0.114995 0.364988 0.281254
944 1 0.165004 0.365001 0.281258
125 1 0.215004 0.314998 0.266629
126 1 0.264974 0.315007 0.266629
145 1 0.214988 0.36501 0.266628
146 1 0.265008 0.364987 0.266628
525 1 0.239985 0.340021 0.273962
526 1 0.290003 0.339989 0.273961
545 1 0.240008 0.389991 0.27396
546 1 0.289979 0.390019 0.27396
925 1 0.215006 0.314998 0.281263
926 1 0.264975 0.315004 0.281263
945 1 0.214987 0.365014 0.281258
946 1 0.265011 0.364991 0.281261
127 1 0.315002 0.315005 0.266626
128 1 0.364986 0.315008 0.266627
147 1 0.314974 0.365012 0.266629
148 1 0.36502 0.364987 0.266626
527 1 0.339989 0.340017 0.273958
528 1 0.390003 0.339979 0.27396
547 1 0.340014 0.389989 0.273958
548 1 0.390004 0.389989 0.27396
927 1 0.315012 0.315002 0.281256
928 1 0.364977 0.315008 0.281255
947 1 0.314983 0.365017 0.281255
948 1 0.365013 0.364989 0.281255
129 1 0.415016 0.314997 0.266627
130 1 0.465 0.314993 0.266627
149 1 0.414995 0.364982 0.266628
150 1 0.465 0.364999 0.266625
529 1 0.440009 0.339998 0.27396
530 1 0.49 0.339997 0.273957
549 1 0.439991 0.389974 0.273959
550 1 0.490002 0.389998 0.273957
929 1 0.415014 0.315001 0.281261
930 1 0.46501 0.315001 0.281258
949 1 0.414993 0.364983 0.281258
950 1 0.465011 0.365 0.281254
131 1 0.515009 0.315003 0.266625
132 1 0.564996 0.314984 0.266627
151 1 0.515008 0.365 0.266625
152 1 0.565016 0.365 0.266626
531 1 0.540008 0.340002 0.273959
532 1 0.589993 0.339981 0.273959
551 1 0.540008 0.389988 0.273959
552 1 0.590004 0.39001 0.273959
931 1 0.515005 0.315012 0.281256
932 1 0.564993 0.314988 0.281261
951 1 0.515 0.364999 0.281254
952 1 0.565016 0.365 0.281259
133 1 0.614991 0.314991 0.266624
134 1 0.665001 0.314988 0.266625
153 1 0.614988 0.364988 0.266626
154 1 0.664999 0.364993 0.266626
533 1 0.639998 0.339985 0.273957
534 1 0.689998 0.339988 0.273958
553 1 0.63999 0.389998 0.273957
554 1 0.69001 0.389995 0.273957
933 1 0.615 0.314992 0.281258
934 1 0.665 0.314987 0.281254
953 1 0.614994 0.364989 0.281257
954 1 0.664997 0.364998 0.281256
135 1 0.71501 0.314998 0.266626
136 1 0.765012 0.314984 0.266628
155 1 0.715013 0.36498 0.266627
156 1 0.76501 0.364983 0.266627
535 1 0.740015 0.33998 0.273961
536 1 0.790011 0.339978 0.273961
555 1 0.740006 0.389992 0.273958
556 1 0.79 0.39 0.273958
935 1 0.715002 0.314997 0.281259
936 1 0.765011 0.314983 0.281262
955 1 0.715008 0.364985 0.281259
956 1 0.76501 0.364992 0.28126
137 1 0.815002 0.314981 0.266629
138 1 0.864994 0.314991 0.266627
157 1 0.814997 0.364988 0.266626
158 1 0.864995 0.364985 0.266625
537 1 0.839995 0.33998 0.27396
538 1 0.889988 0.33998 0.27396
557 1 0.839997 0.389999 0.273956
558 1 0.889997 0.389997 0.273956
937 1 0.815004 0.314981 0.28126
938 1 0.864994 0.314992 0.281259
957 1 0.815001 0.365001 0.281259
958 1 0.864995 0.364999 0.281258
139 1 0.914987 0.31499 0.266626
140 1 0.964983 0.31499 0.266624
159 1 0.914988 0.364982 0.266624
160 1 0.964984 0.364982 0.266624
539 1 0.939982 0.339984 0.273959
540 1 0.989992 0.339988 0.273957
559 1 0.939992 0.389994 0.273957
560 1 0.98999 0.389989 0.273956
939 1 0.914991 0.31499 0.28126
940 1 0.964989 0.314991 0.281258
959 1 0.914989 0.364993 0.281258
960 1 0.964987 0.364988 0.281256
161 1 0.0149985 0.414991 0.266626
162 1 0.0650084 0.414996 0.266628
181 1 0.0150149 0.465024 0.266629
182 1 0.0650008 0.464998 0.266626
561 1 0.0399989 0.439994 0.273959
562 1 0.0900051 0.440003 0.27396
581 1 0.0400272 0.490021 0.273959
582 1 0.0899998 0.489998 0.273961
961 1 0.0149929 0.41499 0.281256
962 1 0.0650048 0.414997 0.281259
981 1 0.0150113 0.465022 0.281257
982 1 0.0649959 0.464994 0.281259
163 1 0.115013 0.415011 0.266628
164 1 0.164985 0.414999 0.266628
183 1 0.115006 0.465004 0.266627
184 1 0.165028 0.464987 0.266629
563 1 0.140013 0.440011 0.273961
564 1 0.190013 0.439968 0.273962
583 1 0.140028 0.489988 0.273961
584 1 0.189989 0.490019 0.273962
963 1 0.11501 0.415012 0.281261
964 1 0.164983 0.414996 0.281259
983 1 0.115002 0.465004 0.281262
984 1 0.165028 0.464987 0.28126
165 1 0.215003 0.414975 0.266629
166 1 0.26498 0.415021 0.266629
185 1 0.214978 0.465006 0.266631
186 1 0.26498 0.464974 0.26663
565 1 0.239959 0.439993 0.273963
566 1 0.290001 0.439988 0.273962
585 1 0.239991 0.489989 0.273962
586 1 0.289975 0.489979 0.27396
965 1 0.215003 0.414966 0.281255
966 1 0.264982 0.415016 0.281259
985 1 0.214975 0.46501 0.281261
986 1 0.264986 0.464977 0.281264
167 1 0.315002 0.414997 0.266629
168 1 0.365019 0.41501 0.266628
187 1 0.314991 0.464997 0.266627
188 1 0.365017 0.464989 0.266626
567 1 0.34 0.439998 0.273959
568 1 0.390026 0.439999 0.273961
587 1 0.340007 0.489988 0.273958
588 1 0.390003 0.489998 0.273959
967 1 0.315012 0.414991 0.281256
968 1 0.365012 0.415007 0.281257
987 1 0.314999 0.465002 0.281259
988 1 0.365011 0.464993 0.28126
169 1 0.415005 0.414987 0.266626
170 1 0.464981 0.41499 0.266626
189 1 0.415008 0.465011 0.266626
190 1 0.464995 0.464987 0.266626
569 1 0.439989 0.439995 0.27396
570 1 0.489999 0.439984 0.273958
589 1 0.440016 0.490008 0.273959
590 1 0.489983 0.490011 0.273957
969 1 0.415006 0.414986 0.281261
970 1 0.464988 0.414989 0.281258
989 1 0.415011 0.465014 0.281261
990 1 0.465001 0.464987 0.281258
171 1 0.515017 0.414995 0.266625
172 1 0.564991 0.415002 0.266627
191 1 0.514992 0.465004 0.266627
192 1 0.564997 0.465003 0.266626
571 1 0.539998 0.44001 0.27396
572 1 0.58999 0.440001 0.273959
591 1 0.540001 0.489998 0.27396
592 1 0.589998 0.490005 0.273959
971 1 0.515011 0.414994 0.281257
972 1 0.564992 0.415001 0.28126
991 1 0.514984 0.465005 0.281259
992 1 0.564999 0.465005 0.28126
173 1 0.614995 0.415012 0.266625
174 1 0.665001 0.414992 0.266625
193 1 0.614984 0.464994 0.266625
194 1 0.665005 0.465001 0.266623
573 1 0.640005 0.440009 0.273957
574 1 0.689995 0.440001 0.273957
593 1 0.639996 0.489991 0.273956
594 1 0.689996 0.490005 0.273956
973 1 0.615003 0.415011 0.281256
974 1 0.664999 0.414992 0.281255
993 1 0.614991 0.464996 0.281254
994 1 0.665005 0.465004 0.281251
175 1 0.715014 0.415004 0.266626
176 1 0.765001 0.415003 0.266625
195 1 0.714994 0.465 0.266623
196 1 0.765018 0.465025 0.266625
575 1 0.740009 0.440021 0.273957
576 1 0.79 0.440008 0.273957
595 1 0.739988 0.489998 0.273957
596 1 0.790023 0.490029 0.273958
975 1 0.715011 0.415006 0.281256
976 1 0.764999 0.415005 0.281256
995 1 0.714992 0.465 0.281254
996 1 0.765017 0.465024 0.281257
177 1 0.814996 0.415005 0.266623
178 1 0.864998 0.415003 0.266622
197 1 0.814993 0.465009 0.266623
198 1 0.865002 0.46501 0.266622
577 1 0.839999 0.440013 0.273956
578 1 0.89 0.440008 0.273955
597 1 0.839998 0.489997 0.273958
598 1 0.889996 0.49002 0.273957
977 1 0.815001 0.415005 0.281254
978 1 0.864998 0.415003 0.281253
997 1 0.814996 0.465001 0.281256
998 1 0.865005 0.465003 0.281254
179 1 0.915 0.415002 0.266623
180 1 0.964994 0.415004 0.266626
199 1 0.914997 0.465013 0.266623
200 1 0.964999 0.465006 0.266624
579 1 0.939994 0.440012 0.273957
580 1 0.990007 0.44001 0.273957
599 1 0.939999 0.489997 0.273959
600 1 0.989986 0.490014 0.273958
979 1 0.914998 0.415001 0.281254
980 1 0.964996 0.415004 0.281254
999 1 0.914991 0.465006 0.281257
1000 1 0.965002 0.464999 0.281258
201 1 0.0150061 0.51499 0.266624
202 1 0.0650288 0.515018 0.266626
221 1 0.0150079 0.564996 0.266625
222 1 0.0650032 0.564974 0.266626
601 1 0.0400019 0.539987 0.273959
602 1 0.0900406 0.540009 0.27396
621 1 0.040018 0.589996 0.273959
622 1 0.0899944 0.58998 0.273958
1001 1 0.0150019 0.514992 0.281256
1002 1 0.065023 0.515019 0.28126
1021 1 0.0150023 0.564996 0.281257
1022 1 0.0649966 0.564979 0.281257
203 1 0.115011 0.514977 0.266629
204 1 0.164993 0.515011 0.266628
223 1 0.115007 0.56501 0.266625
224 1 0.165005 0.564978 0.266625
603 1 0.139986 0.540006 0.273959
604 1 0.190003 0.539995 0.27396
623 1 0.140017 0.589992 0.273956
624 1 0.189991 0.589985 0.273958
1003 1 0.115012 0.514975 0.28126
1004 1 0.164991 0.515016 0.281259
1023 1 0.115012 0.565022 0.281251
1024 1 0.165001 0.564987 0.281253
205 1 0.215002 0.514993 0.266627
206 1 0.264991 0.51499 0.266627
225 1 0.215001 0.564996 0.266626
226 1 0.264989 0.564995 0.266624
605 1 0.239991 0.539995 0.273959
606 1 0.289995 0.539998 0.273957
625 1 0.239994 0.590004 0.273958
626 1 0.289981 0.590002 0.273956
1005 1 0.215004 0.515 0.28126
1006 1 0.264997 0.515001 0.281259
1025 1 0.215004 0.565002 0.281256
1026 1 0.264994 0.564996 0.281255
207 1 0.314985 0.514975 0.266626
208 1 0.365007 0.514993 0.266624
227 1 0.314995 0.565009 0.266624
228 1 0.365003 0.565001 0.266625
607 1 0.339991 0.539992 0.273955
608 1 0.390016 0.539999 0.273956
627 1 0.340001 0.590018 0.273956
628 1 0.390005 0.590006 0.273959
1007 1 0.31499 0.514984 0.281256
1008 1 0.365 0.515004 0.281256
1027 1 0.314999 0.565008 0.281253
1028 1 0.364996 0.564997 0.281255
209 1 0.415 0.514982 0.266623
210 1 0.464996 0.51501 0.266623
229 1 0.415 0.565017 0.266624
230 1 0.465 0.564985 0.266624
609 1 0.43999 0.540002 0.273956
610 1 0.490011 0.54 0.273955
629 1 0.440027 0.589987 0.273959
630 1 0.48997 0.590002 0.273958
1009 1 0.415 0.514991 0.281256
1010 1 0.464999 0.51502 0.281251
1029 1 0.414999 0.56501 0.281255
1030 1 0.465004 0.564973 0.281248
211 1 0.515009 0.514988 0.266624
212 1 0.564993 0.515007 0.266627
231 1 0.515001 0.565024 0.266626
232 1 0.565002 0.565004 0.266628
611 1 0.539986 0.54001 0.273959
612 1 0.590006 0.54 0.273959
631 1 0.540004 0.590004 0.273961
632 1 0.590001 0.590004 0.273961
1011 1 0.515002 0.514992 0.281256
1012 1 0.564994 0.515008 0.28126
1031 1 0.514992 0.565017 0.281255
1032 1 0.565004 0.564998 0.281261
213 1 0.614997 0.515001 0.266624
214 1 0.664992 0.514996 0.266623
233 1 0.614999 0.565008 0.266626
234 1 0.665002 0.565002 0.266624
613 1 0.640003 0.539998 0.273957
614 1 0.689986 0.539989 0.273957
633 1 0.640007 0.590009 0.273957
634 1 0.689994 0.590003 0.273958
1013 1 0.615005 0.514998 0.281255
1014 1 0.66499 0.514991 0.281252
1033 1 0.615007 0.565006 0.281258
1034 1 0.664999 0.565002 0.281255
215 1 0.714998 0.515005 0.266623
216 1 0.764992 0.515 0.266625
235 1 0.714986 0.564995 0.266625
236 1 0.764999 0.564999 0.266626
615 1 0.73999 0.540002 0.273958
616 1 0.79 0.539993 0.273959
635 1 0.739986 0.589992 0.273959
636 1 0.789993 0.590012 0.273959
1015 1 0.714998 0.515001 0.281255
1016 1 0.764988 0.514998 0.281258
1035 1 0.714985 0.564994 0.281257
1036 1 0.764998 0.564998 0.28126
217 1 0.815026 0.515024 0.266625
218 1 0.864977 0.514996 0.266623
237 1 0.814983 0.565006 0.266627
238 1 0.865035 0.565008 0.266625
617 1 0.840025 0.54004 0.273958
618 1 0.889997 0.539977 0.273956
637 1 0.840024 0.589967 0.273959
638 1 0.890002 0.590029 0.273957
1017 1 0.815028 0.515024 0.281259
1018 1 0.864981 0.514997 0.281252
1037 1 0.81498 0.565004 0.281257
1038 1 0.865046 0.565004 0.281247
219 1 0.915022 0.514993 0.266623
220 1 0.964977 0.51501 0.266626
239 1 0.914975 0.565003 0.266625
240 1 0.965009 0.565005 0.266626
619 1 0.93998 0.540025 0.273959
620 1 0.990003 0.539988 0.273957
639 1 0.93998 0.589978 0.27396
640 1 0.990013 0.590016 0.273957
1019 1 0.915014 0.514995 0.281256
1020 1 0.964982 0.515014 0.281258
1039 1 0.914962 0.565 0.281251
1040 1 0.96502 0.565003 0.281257
241 1 0.0150313 0.615029 0.266629
242 1 0.0650127 0.615009 0.266628
261 1 0.0150251 0.664998 0.266631
262 1 0.0650473 0.665016 0.266631
641 1 0.04004 0.640023 0.273962
642 1 0.0900231 0.639991 0.273963
661 1 0.0400343 0.690001 0.273963
662 1 0.0900288 0.690027 0.273966
1041 1 0.0150233 0.61502 0.28126
1042 1 0.0650086 0.614999 0.28126
1061 1 0.0150106 0.665 0.28126
1062 1 0.0650443 0.665011 0.281268
243 1 0.114991 0.614981 0.266626
244 1 0.165013 0.61501 0.266624
263 1 0.115003 0.665014 0.266631
264 1 0.164983 0.665004 0.26663
643 1 0.139985 0.63998 0.27396
644 1 0.189993 0.640009 0.273962
663 1 0.139998 0.690035 0.273962
664 1 0.189986 0.689992 0.273965
1043 1 0.114998 0.614967 0.281253
1044 1 0.165008 0.615 0.281256
1063 1 0.115013 0.665004 0.281265
1064 1 0.164975 0.664992 0.281266
245 1 0.214984 0.615007 0.266627
246 1 0.26499 0.615022 0.266626
265 1 0.214986 0.66501 0.266628
266 1 0.264958 0.66503 0.26663
645 1 0.23998 0.640006 0.273961
646 1 0.289985 0.640034 0.273959
665 1 0.239954 0.690027 0.273964
666 1 0.289996 0.689996 0.27396
1045 1 0.214988 0.614998 0.281258
1046 1 0.264998 0.615015 0.281257
1065 1 0.214991 0.664998 0.281266
1066 1 0.264965 0.665024 0.281262
247 1 0.314976 0.615015 0.266626
248 1 0.365014 0.615018 0.266625
267 1 0.315004 0.665011 0.266626
268 1 0.365018 0.664971 0.266627
647 1 0.339995 0.64 0.273958
648 1 0.390037 0.639994 0.273961
667 1 0.340032 0.689994 0.273958
668 1 0.389983 0.690009 0.273959
1047 1 0.314979 0.615007 0.281256
1048 1 0.365007 0.615011 0.281259
1067 1 0.315008 0.66501 0.281259
1068 1 0.365013 0.664972 0.281258
249 1 0.415022 0.614988 0.266626
250 1 0.464986 0.615028 0.266628
269 1 0.414996 0.665017 0.266626
270 1 0.464988 0.664992 0.266626
649 1 0.439982 0.640017 0.273962
650 1 0.490003 0.640009 0.27396
669 1 0.440003 0.690008 0.273959
670 1 0.489995 0.689992 0.273956
1049 1 0.41502 0.614979 0.281262
1050 1 0.464989 0.615025 0.281259
1069 1 0.414994 0.665026 0.281261
1070 1 0.464995 0.665001 0.281257
251 1 0.514996 0.614995 0.266629
252 1 0.565001 0.615002 0.266628
271 1 0.515016 0.664997 0.266626
272 1 0.564991 0.664993 0.266629
651 1 0.539994 0.639989 0.273962
652 1 0.589995 0.640003 0.273961
671 1 0.540002 0.690013 0.273959
672 1 0.590003 0.689997 0.273959
1051 1 0.514988 0.61499 0.281261
1052 1 0.565003 0.615 0.281263
1071 1 0.515009 0.665007 0.281257
1072 1 0.56499 0.665 0.281262
253 1 0.614992 0.615006 0.266626
254 1 0.665008 0.615009 0.266624
273 1 0.614992 0.664994 0.266625
274 1 0.665008 0.664997 0.266624
653 1 0.640004 0.640005 0.273957
654 1 0.690005 0.640007 0.273958
673 1 0.640006 0.689991 0.273957
674 1 0.689987 0.690007 0.273958
1053 1 0.615001 0.615005 0.281258
1054 1 0.665005 0.615009 0.281255
1073 1 0.615001 0.664996 0.281257
1074 1 0.665003 0.664996 0.281254
255 1 0.714998 0.614999 0.266625
256 1 0.764979 0.615006 0.266627
275 1 0.714991 0.665014 0.266625
276 1 0.765017 0.664972 0.266626
655 1 0.739979 0.640014 0.273959
656 1 0.79002 0.639969 0.273959
675 1 0.740017 0.689983 0.273959
676 1 0.789999 0.689994 0.273957
1055 1 0.714998 0.614998 0.281258
1056 1 0.764976 0.615006 0.28126
1075 1 0.71499 0.665016 0.281258
1076 1 0.76502 0.664974 0.281258
257 1 0.815024 0.614978 0.266626
258 1 0.864978 0.615007 0.266625
277 1 0.814993 0.66499 0.266624
278 1 0.865002 0.664992 0.266624
657 1 0.839996 0.640003 0.27396
658 1 0.889996 0.63998 0.273958
677 1 0.839995 0.689991 0.273957
678 1 0.890002 0.689998 0.273956
1057 1 0.815026 0.614976 0.28126
1058 1 0.864981 0.615006 0.281256
1077 1 0.814994 0.664998 0.281257
1078 1 0.865004 0.665001 0.281258
259 1 0.915024 0.615012 0.266625
260 1 0.964982 0.614995 0.266628
279 1 0.914991 0.664984 0.266624
280 1 0.964991 0.664996 0.266624
659 1 0.940001 0.640009 0.27396
660 1 0.989989 0.640005 0.273959
679 1 0.939987 0.68999 0.273957
680 1 0.989995 0.689987 0.273957
1059 1 0.915018 0.61501 0.281259
1060 1 0.964987 0.614989 0.28126
1079 1 0.914988 0.664994 0.281258
1080 1 0.964993 0.665006 0.281254
281 1 0.0150135 0.714978 0.266627
282 1 0.065026 0.71501 0.266632
301 1 0.0149966 0.765006 0.266626
302 1 0.0649896 0.765014 0.26663
681 1 0.0400008 0.739996 0.27396
682 1 0.0900199 0.740042 0.273962
701 1 0.0399944 0.790013 0.273961
702 1 0.0900493 0.789952 0.273963
1081 1 0.014999 0.714984 0.281257
1082 1 0.0650167 0.715021 0.281266
1101 1 0.0149846 0.765003 0.281258
1102 1 0.0649735 0.765009 0.281261
283 1 0.114993 0.715019 0.266629
284 1 0.165031 0.714989 0.266628
303 1 0.115032 0.764992 0.266629
304 1 0.164982 0.765026 0.266627
683 1 0.140029 0.740002 0.273957
684 1 0.189968 0.740053 0.27396
703 1 0.139996 0.790015 0.273959
704 1 0.189977 0.789981 0.273962
1083 1 0.115003 0.715031 0.281259
1084 1 0.165023 0.715 0.281258
1103 1 0.115048 0.764985 0.281245
1104 1 0.16497 0.76502 0.281241
285 1 0.214955 0.715013 0.266631
286 1 0.264984 0.714987 0.266628
305 1 0.215016 0.765018 0.266631
306 1 0.264993 0.765001 0.26663
685 1 0.239982 0.739995 0.273961
686 1 0.290008 0.739986 0.273958
705 1 0.240002 0.790022 0.273965
706 1 0.289993 0.790013 0.273961
1085 1 0.214956 0.715022 0.281266
1086 1 0.264996 0.714995 0.281262
1105 1 0.215018 0.765011 0.281258
1106 1 0.265004 0.76499 0.281262
287 1 0.315005 0.714976 0.266626
288 1 0.365 0.715011 0.266624
307 1 0.314991 0.765017 0.266626
308 1 0.365002 0.764998 0.266625
687 1 0.339996 0.739999 0.273956
688 1 0.390006 0.739997 0.273957
707 1 0.340014 0.789998 0.27396
708 1 0.389992 0.789987 0.27396
1087 1 0.315009 0.714981 0.281254
1088 1 0.364996 0.715018 0.281249
1107 1 0.314995 0.765006 0.281257
1108 1 0.364999 0.764985 0.281255
289 1 0.414995 0.714989 0.266625
290 1 0.464999 0.715002 0.266624
309 1 0.415001 0.765006 0.266625
310 1 0.46498 0.765 0.266624
689 1 0.439989 0.739988 0.273958
690 1 0.489996 0.740005 0.273956
709 1 0.439991 0.789994 0.27396
710 1 0.489995 0.789984 0.273957
1089 1 0.414993 0.714991 0.281254
1090 1 0.465009 0.715003 0.281252
1109 1 0.415001 0.764999 0.281259
1110 1 0.464988 0.764997 0.281257
291 1 0.514994 0.714998 0.266624
292 1 0.565011 0.715001 0.266625
311 1 0.51501 0.764998 0.266623
312 1 0.564997 0.764985 0.266624
691 1 0.539997 0.739986 0.273958
692 1 0.590013 0.74 0.273958
711 1 0.540007 0.789988 0.273958
712 1 0.589987 0.789988 0.273958