ITEM: TIMESTEP
4000000
ITEM: NUMBER OF ATOMS
1800
ITEM: BOX BOUNDS pp pp pp
-2.5251495364572936e+01 2.5251495364572936e+01
-2.5251495364572936e+01 2.5251495364572936e+01
-2.5251495364572936e+01 2.5251495364572936e+01
ITEM: ATOMS id type xs ys zs
1363 3 0.0806476 0.129059 0.124412
1362 2 0.103165 0.104949 0.0791426
1361 1 0.0599877 0.0593619 0.0967419
166 1 0.00418865 0.398924 0.26906
1273 3 0.0294677 0.131072 0.063667
1581 6 0.197765 0.0975898 0.0723339
217 2 0.333292 0.289308 0.485695
1398 3 0.231624 0.164646 0.477053
261 1 0.331426 0.397794 0.462815
765 5 0.110104 0.49205 0.178619
346 1 0.485429 0.266443 0.462743
1401 1 0.492074 0.270226 0.269152
283 3 0.315434 0.058914 0.0427543
282 2 0.264633 0.0502685 0.0563848
629 4 0.264832 0.0618664 0.136141
284 4 0.360303 0.0422128 0.0841037
149 4 0.448854 0.08962 0.499392
1601 6 0.47302 0.176011 0.464747
105 5 0.4179 0.135327 0.153293
755 5 0.385741 0.117955 0.0508899
1736 6 0.44323 0.493463 0.3896
104 4 0.461747 0.0880334 0.09404
1538 6 0.417324 0.459702 0.485274
1519 6 0.433166 0.353118 0.482109
196 1 0.426828 0.0429881 0.145768
1604 6 0.00174115 0.255256 0.152125
30 5 0.221986 0.440321 0.388978
1364 4 0.0421947 0.183252 0.119649
984 4 0.111819 0.228868 0.151257
330 5 0.141104 0.308084 0.0767736
985 5 0.119702 0.215122 0.0660738
329 4 0.0626045 0.289228 0.0397407
761 1 0.0738557 0.288298 0.174302
762 2 0.0345082 0.331077 0.146453
229 4 0.379069 0.424098 0.383845
1378 3 0.19686 0.355349 0.0178203
1151 1 0.2975 0.229608 0.48377
630 5 0.315433 0.133682 0.118361
1380 5 0.206295 0.218213 0.00615872
1379 4 0.227778 0.293535 0.0212281
670 5 0.310291 0.217522 0.0210769
931 1 0.341208 0.303196 0.043799
965 5 0.288217 0.25597 0.155137
264 4 0.206282 0.426733 0.481476
205 5 0.203116 0.237486 0.115825
467 2 0.226012 0.479091 0.183841
669 4 0.391254 0.252027 0.0293138
1405 5 0.378282 0.226102 0.121598
668 3 0.423754 0.303478 0.0611517
1272 2 0.0212746 0.124698 0.00624471
667 2 0.409276 0.324989 0.0128884
1542 6 0.478546 0.22645 0.0995387
1644 6 0.176115 0.063353 0.46331
763 3 0.0813647 0.353486 0.129929
1564 6 0.124074 0.420293 0.0583482
764 4 0.0812448 0.419057 0.143306
962 2 0.18355 0.379612 0.0922333
961 1 0.196623 0.404395 0.152471
371 1 0.00534928 0.208858 0.426457
1784 6 0.0325582 0.380355 0.0575078
429 4 0.0845032 0.482646 0.0100087
964 4 0.252352 0.318146 0.0962733
67 2 0.263164 0.460355 0.0252058
963 3 0.236672 0.376679 0.0912544
1603 6 0.312546 0.387744 0.130703
66 1 0.311131 0.444669 0.066097
1767 6 0.300584 0.372603 0.027661
1693 6 0.498282 0.456291 0.149429
141 1 0.299448 0.493573 0.114155
468 3 0.26086 0.449769 0.152945
1540 6 0.208665 0.470783 0.0941038
29 4 0.289658 0.476592 0.354633
866 1 0.484806 0.426273 0.0698638
886 1 0.383736 0.440638 0.0326092
360 5 0.204527 0.3497 0.4288
666 1 0.386219 0.368911 0.0562199
1753 6 0.449125 0.358046 0.145481
681 1 0.41387 0.422489 0.0956814
230 5 0.300243 0.38378 0.386063
165 5 0.319221 0.00948419 0.443398
1587 6 0.12827 0.0687856 0.150079
878 3 0.0265336 0.0496726 0.299643
877 2 0.0596563 0.0718775 0.259768
876 1 0.0550343 0.122798 0.299315
526 1 0.134425 0.0893622 0.239058
981 1 0.0595 0.134375 0.227509
1707 6 0.142557 0.154495 0.196683
397 2 0.0520077 0.0640856 0.189338
1697 6 0.196166 0.132357 0.295053
626 1 0.216577 0.0800943 0.226984
627 2 0.196318 0.104649 0.172145
628 3 0.217947 0.0534407 0.154238
794 4 0.285088 0.14157 0.289052
528 3 0.182538 0.0499854 0.285429
530 5 0.31937 0.0700038 0.240563
529 4 0.243618 0.0315237 0.282202
527 2 0.126223 0.0434307 0.282198
269 4 0.229021 0.468925 0.284699
1397 2 0.179719 0.151599 0.451674
792 2 0.363551 0.166083 0.297687
413 3 0.468549 0.130237 0.223257
414 4 0.419233 0.144804 0.242251
1583 6 0.461522 0.112376 0.310209
415 5 0.344817 0.195519 0.217818
292 2 0.435456 0.0343055 0.327233
1615 6 0.438607 0.046677 0.230064
982 2 0.0151112 0.17886 0.211089
201 1 0.113861 0.190112 0.267738
1552 6 0.0367266 0.199483 0.287411
983 3 0.0634574 0.210224 0.209772
1518 6 0.0832886 0.279842 0.255055
202 2 0.141711 0.228383 0.22551
124 4 0.173518 0.296497 0.252705
204 4 0.20588 0.232435 0.19446
123 3 0.146166 0.30248 0.3186
125 5 0.164865 0.320269 0.171583
1775 6 0.0619006 0.329872 0.336017
226 1 0.486988 0.446499 0.437848
795 5 0.256352 0.151638 0.20071
122 2 0.113377 0.262128 0.341358
203 3 0.188241 0.211146 0.251261
1105 5 0.264778 0.236187 0.25817
1200 5 0.35957 0.30874 0.215639
839 4 0.236085 0.0352427 0.377118
1404 4 0.426115 0.280567 0.15673
1403 3 0.478335 0.308291 0.198551
1774 6 0.46346 0.219339 0.202088
1199 4 0.403502 0.242607 0.268421
1198 3 0.423991 0.194353 0.301943
1633 6 0.315892 0.479458 0.210135
1402 2 0.442474 0.308468 0.247814
1197 2 0.440925 0.223749 0.343567
1616 6 0.361142 0.23676 0.34284
168 3 0.0563214 0.355858 0.23031
270 5 0.177208 0.419948 0.227834
169 4 0.105596 0.362772 0.249871
170 5 0.160338 0.386875 0.324533
167 2 0.0249342 0.403497 0.209097
544 4 0.141376 0.476837 0.335004
545 5 0.0897748 0.454142 0.270285
379 4 0.330721 0.437397 0.289414
469 4 0.267038 0.412586 0.201535
470 5 0.246643 0.329517 0.214906
380 5 0.264301 0.385032 0.296833
220 5 0.36099 0.345224 0.304809
685 5 0.420733 0.421721 0.301518
683 3 0.369382 0.43677 0.158724
684 4 0.395451 0.405284 0.220917
1491 1 0.474497 0.401728 0.226082
754 4 0.449887 0.0899641 0.0114384
867 2 0.450365 0.480045 0.0753423
378 3 0.351203 0.498146 0.288785
1237 2 0.0367835 0.08787 0.464785
1551 6 0.088664 0.031791 0.34965
1236 1 0.0608769 0.0910342 0.403988
836 1 0.125665 0.107977 0.403251
837 2 0.175367 0.107406 0.362646
1713 6 0.10285 0.176459 0.357652
682 2 0.407033 0.471398 0.137986
1572 6 0.0820312 0.0294772 0.452049
302 2 0.477834 0.082569 0.420987
1271 1 0.0704856 0.163934 0.00649506
262 2 0.270875 0.384815 0.482537
1673 6 0.323358 0.0867358 0.359533
838 3 0.169916 0.0510152 0.375964
1101 1 0.234046 0.110232 0.408801
263 3 0.264752 0.436822 0.458685
218 3 0.335063 0.324669 0.44363
1441 1 0.130465 0.0435264 0.0576526
304 4 0.480367 0.0233187 0.388351
293 3 0.393427 0.0558112 0.298963
301 1 0.475092 0.139834 0.390405
291 1 0.409664 0.0682769 0.375262
791 1 0.395364 0.146293 0.350704
164 4 0.370487 0.0818205 0.451635
163 3 0.396008 0.139562 0.469405
150 5 0.425012 0.0124125 0.453731
162 2 0.416254 0.121024 0.419839
356 1 0.0345223 0.246787 0.360301
1506 6 0.0854115 0.160946 0.468692
358 3 0.0707953 0.295789 0.407964
357 2 0.074342 0.239396 0.410277
1577 6 0.0140716 0.297397 0.475568
1622 6 0.128391 0.285227 0.469843
228 3 0.44143 0.413981 0.384372
373 3 0.0033276 0.163522 0.364126
793 3 0.32156 0.159703 0.33196
121 1 0.162211 0.267238 0.382736
1104 4 0.2083 0.222388 0.324189
1103 3 0.20168 0.174301 0.375259
35 5 0.261096 0.296035 0.341002
1102 2 0.249559 0.171211 0.394912
1612 6 0.225522 0.23811 0.436869
1509 6 0.329724 0.172408 0.429264
216 1 0.269614 0.300559 0.477705
34 4 0.30076 0.275823 0.412086
1595 6 0.471782 0.321403 0.362357
161 1 0.416686 0.185358 0.411183
32 2 0.404668 0.281332 0.456078
33 3 0.361414 0.248972 0.430766
31 1 0.433705 0.263977 0.400553
1365 5 0.0127632 0.212589 0.0443233
197 2 0.460028 0.00351568 0.106122
227 2 0.468458 0.387356 0.422279
398 3 0.0147749 0.0378487 0.21736
784 4 0.048553 0.413612 0.488056
359 4 0.128583 0.331422 0.388563
1140 5 0.0462537 0.45022 0.357042
783 3 0.0656098 0.360847 0.448401
782 2 0.0325159 0.395959 0.413794
219 4 0.376306 0.324381 0.388261
860 5 0.115173 0.415351 0.422278
1396 1 0.165138 0.203841 0.484689
95 5 -0.00258426 0.493089 0.152869
1442 2 0.175447 0.0076714 0.0282682
396 1 0.0505292 0.0098865 0.152985
377 2 0.377581 0.494706 0.338134
1392 2 0.162761 0.489939 0.037944
1136 1 0.00483624 0.282889 0.302204
285 5 0.361278 0.00800664 0.169057
1391 1 0.201209 0.456537 0.000253652
1766 6 0.422053 0.496603 0.213935
781 1 0.0106436 0.337142 0.400894
303 3 0.499672 0.0683661 0.372856
1238 3 0.00905943 0.132012 0.444019
868 3 0.492443 0.496296 0.0365625
1196 1 0.498723 0.199295 0.321306
77 2 0.495251 0.169463 0.149453
822 2 0.487588 0.48564 0.262079
412 2 0.493959 0.169666 0.25552
887 2 0.334419 0.46829 -0.000450538
1399 4 0.249886 0.0988109 0.492094
281 1 0.263519 0.0198477 0.000999539
785 5 0.0278795 0.492188 0.4958
1293 3 0.0738397 0.0821417 0.607039
1292 2 0.133321 0.0698778 0.610378
194 4 0.0468748 0.0582439 0.532985
192 2 0.12602 0.134211 0.538095
193 3 0.096347 0.0854922 0.524702
191 1 0.169754 0.0875798 0.549977
933 3 0.365475 0.291383 0.970217
493 3 0.0617885 0.160402 0.541493
1163 3 0.101421 0.00839421 0.887613
1719 6 0.19575 0.160408 0.575743
1291 1 0.131028 0.128049 0.637718
1133 3 0.26601 0.0236092 0.693589
1400 5 0.241939 0.0660146 0.571173
1016 1 0.298575 0.502243 0.890182
1025 5 0.320738 0.0859969 0.646856
1024 4 0.262125 0.146152 0.623537
1715 6 0.196309 0.122488 0.682722
1490 5 0.401536 0.0643077 0.561335
1390 5 0.302768 0.150859 0.542643
146 1 0.46674 0.21176 0.550804
147 2 0.461334 0.160435 0.58666
1489 4 0.412827 0.094739 0.632184
508 3 0.496812 0.381287 0.972918
1488 3 0.413961 0.155816 0.650273
999 4 0.214192 0.496981 0.552381
1180 5 0.0427357 0.143104 0.666702
1705 6 0.1197 0.248041 0.654157
1178 3 0.0168212 0.279116 0.66599
1162 2 0.04566 0.00966153 0.905874
492 2 0.0444581 0.209269 0.568475
491 1 0.107588 0.203204 0.580824
857 2 0.0831521 0.300173 0.579229
856 1 0.0933704 0.254657 0.534768
1021 1 0.186261 0.209084 0.714085
1068 3 0.212581 0.481943 0.747201
1672 6 0.177801 0.256618 0.571106
1153 3 0.257657 0.266656 0.540039
1152 2 0.239949 0.222966 0.515764
1154 4 0.258786 0.270082 0.604885
1083 3 0.229128 0.339105 0.557906
1023 3 0.220464 0.202156 0.643327
890 5 0.427021 0.497934 0.852929
148 3 0.438707 0.141134 0.536718
1389 4 0.330508 0.246169 0.554087
1387 2 0.413032 0.3166 0.571098
1590 6 0.358165 0.321384 0.650072
1041 1 0.436132 0.31092 0.633635
1388 3 0.380533 0.289167 0.538402
1772 6 0.411599 0.236405 0.611707
1487 2 0.364602 0.175668 0.638122
1386 1 0.457431 0.277412 0.54453
482 2 0.47335 0.191178 0.668155
1121 1 0.000984373 0.359815 0.529386
1511 6 0.390599 0.212284 0.504585
486 1 0.143559 0.330584 0.582318
489 4 0.10174 0.443239 0.644774
1623 6 0.0644935 0.390661 0.583023
842 2 0.479689 0.066403 0.782532
265 5 0.131773 0.468453 0.503799
888 3 0.374955 0.499667 0.980752
1681 6 0.305321 0.45375 0.533982
1084 4 0.209469 0.337835 0.621505
1778 6 0.312772 0.344866 0.540395
488 3 0.132577 0.387625 0.634244
1082 2 0.187452 0.347324 0.524156
487 2 0.132362 0.329086 0.64547
1649 6 0.178578 0.410981 0.576379
996 1 0.266046 0.387843 0.615262
602 2 0.315 0.394326 0.668823
427 2 0.0959522 0.379812 0.971035
601 1 0.345647 0.392304 0.614807
1762 6 0.375759 0.463474 0.593298
461 1 0.37498 0.399368 0.528691
463 3 0.443556 0.427984 0.556803
464 4 0.480614 0.449518 0.604904
462 2 0.420617 0.383573 0.572811
603 3 0.344529 0.438286 0.679081
1671 6 0.162505 0.0167855 0.663525
1578 6 0.0420324 0.033328 0.819724
1522 6 0.116236 0.0826364 0.748551
1328 3 0.0439697 0.0222201 0.722979
1192 2 0.184845 0.031019 0.788654
494 4 0.0157032 0.132313 0.568853
1377 2 0.223352 0.392595 0.984154
61 1 0.0662679 0.103727 0.830865
1206 1 0.183942 0.0989761 0.816399
1131 1 0.203227 0.0549931 0.724099
490 5 0.0662123 0.504139 0.594177
648 3 0.275957 0.00890766 0.934324
393 3 0.185664 0.145982 0.763098
394 4 0.241219 0.124668 0.762688
1134 4 0.334764 0.0208196 0.718738
1499 4 0.0222794 0.414231 0.86798
659 4 0.432059 0.0302445 0.838918
160 5 0.448797 0.0196641 0.639964
395 5 0.330356 0.125448 0.747457
1135 5 0.410724 0.0644031 0.734008
844 4 0.45999 0.151133 0.835993
1132 2 0.244171 0.00855459 0.743387
1629 6 0.0088313 0.239176 0.794867
1062 2 0.0606254 0.290259 0.732681
1498 3 0.0292651 0.356576 0.878829
1061 1 0.0554419 0.334989 0.778727
297 2 0.0902787 0.207622 0.724535
296 1 0.129816 0.159242 0.710366
298 3 0.0751093 0.167366 0.766139
1768 6 0.14411 0.272575 0.75314
809 4 0.047082 0.489959 0.758063
391 1 0.122681 0.135473 0.808615
1022 2 0.239251 0.186238 0.692798
392 2 0.151059 0.187706 0.784305
1085 5 0.223151 0.278156 0.688176
1155 5 0.299633 0.225154 0.6605
485 5 0.327589 0.27573 0.762163
309 4 0.2346 0.273258 0.816602
310 5 0.261348 0.209398 0.764809
1486 1 0.371929 0.211929 0.690578
1510 6 0.437762 0.198493 0.744929
484 4 0.408173 0.275607 0.706405
483 3 0.462658 0.248461 0.67331
970 5 0.467149 0.291485 0.792442
1043 3 0.482161 0.325691 0.698128
843 3 0.484704 0.123637 0.785709
328 3 0.0508296 0.276601 0.97639
1610 6 0.0653457 0.377485 0.70521
808 3 0.0180953 0.435356 0.754941
901 1 0.128047 0.345787 0.76962
816 1 0.175598 0.390397 0.802156
904 4 0.128064 0.452637 0.743992
902 2 0.159081 0.357205 0.715352
1558 6 0.0832903 0.407487 0.812707
1431 1 0.182938 0.0146996 0.56211
1294 4 0.029403 0.0542483 0.622725
967 2 0.291073 0.396767 0.73239
954 4 0.500598 0.0337513 0.891285
1745 6 0.207961 0.416229 0.667876
966 1 0.27451 0.345294 0.696551
1525 6 0.245106 0.354837 0.780238
903 3 0.159462 0.408348 0.735879
1066 1 0.28239 0.451522 0.764606
1067 2 0.223053 0.429009 0.755014
1692 6 0.240648 0.438896 0.838671
998 3 0.245267 0.460853 0.605709
799 4 0.484459 0.490868 0.692562
1642 6 0.421153 0.396946 0.667145
968 3 0.340573 0.362828 0.732368
1042 2 0.499291 0.315579 0.642496
1643 6 0.336251 0.405412 0.806478
604 4 0.377833 0.43329 0.733782
969 4 0.395947 0.339864 0.773377
605 5 0.448282 0.420099 0.778395
1329 4 0.00971099 0.0609857 0.73326
1659 6 0.280924 0.484707 0.689882
63 3 0.0531418 0.131803 0.902928
1777 6 0.201105 0.0484313 0.95547
661 1 0.103783 0.244952 0.913965
1191 1 0.125661 0.0309057 0.815397
1504 6 0.139203 0.101911 0.885054
1789 6 0.0995465 0.0767166 0.974021
62 2 0.0480971 0.0805869 0.887749
932 2 0.309277 0.294463 0.988321
1770 6 0.182572 0.00291374 0.865869
1568 6 0.274941 0.0632927 0.839627
1209 4 0.300068 0.151309 0.846936
1208 3 0.241055 0.147968 0.838238
1207 2 0.210286 0.115178 0.87349
649 4 0.280353 0.071854 0.926072
474 4 0.356019 0.0383759 0.890488
1176 1 0.0158582 0.352628 0.638162
752 2 0.430807 0.0155841 0.932789
404 4 0.0241726 0.458094 0.670266
753 3 0.464233 0.0361458 0.970217
955 5 0.445734 0.101549 0.909077
1210 5 0.345328 0.137974 0.922425
660 5 0.380488 0.095875 0.828038
1722 6 0.452237 0.440047 0.990225
663 3 0.129931 0.171085 0.9294
114 4 0.0208459 0.276933 0.876449
112 2 0.0887754 0.26957 0.810546
1654 6 0.0801466 0.192977 0.848018
1592 6 0.135628 0.305392 0.977238
662 2 0.116591 0.207842 0.964806
113 3 0.0701553 0.293363 0.857242
326 1 0.0826684 0.324893 0.922082
327 2 0.0242277 0.315526 0.949306
1548 6 0.176648 0.19971 0.863717
664 4 0.18495 0.148477 0.954956
308 3 0.189129 0.320752 0.823897
665 5 0.261694 0.187569 0.924016
1350 5 0.314393 0.255881 0.873996
1750 6 0.211011 0.286769 0.90454
306 1 0.119495 0.343667 0.852728
15 5 0.4704 0.222735 0.903758
480 5 0.471925 0.26186 0.992563
845 5 0.38309 0.190584 0.841452
934 4 0.363015 0.230743 0.94882
510 5 0.403139 0.294864 0.886396
935 5 0.426839 0.167926 0.978845
1018 3 0.338991 0.436623 0.883412
1580 6 0.172999 0.464678 0.925633
111 1 0.144521 0.274616 0.840346
817 2 0.158947 0.422 0.855707
818 3 0.15431 0.464122 0.821826
819 4 0.104988 0.496005 0.8427
740 5 0.0652655 0.478153 0.918866
798 3 0.418627 0.484847 0.677809
426 1 0.1027 0.399271 0.910477
1684 6 0.492121 0.352932 0.573408
307 2 0.177971 0.35706 0.866893
1347 2 0.279625 0.362983 0.918379
1556 6 0.273357 0.443026 0.943436
428 3 0.112421 0.433111 0.978314
1376 1 0.169014 0.383709 0.950378
1020 5 0.498 0.427579 0.884747
1017 2 0.332572 0.476678 0.841555
1346 1 0.22092 0.383931 0.907046
1349 4 0.335818 0.334807 0.856919
299 4 0.0220316 0.123686 0.780499
1348 3 0.285653 0.368029 0.864232
1678 6 0.000288873 0.287286 0.57131
1764 6 0.364716 0.39582 0.958438
10 5 0.496531 0.0838757 0.574745
882 2 0.106449 0.00140496 0.525108
858 3 0.0711436 0.328517 0.531378
509 4 0.449458 0.367852 0.936155
1019 4 0.396237 0.412338 0.875957
997 2 0.296575 0.443163 0.616337
42 2 0.37951 0.484615 0.78471
859 4 0.115116 0.362903 0.504367
475 5 0.361292 0.0493852 0.973506
1063 3 0.00953118 0.31336 0.721188
889 4 0.374834 0.495213 0.921759
739 4 0.0284893 0.420585 0.970642
650 5 0.283848 0.123508 0.992296
1081 1 0.205361 0.290067 0.501955
1184 4 0.126079 0.628907 0.147057
1395 5 0.183962 0.632148 0.0723223
1183 3 0.11686 0.569875 0.134884
1690 6 0.338242 0.595923 0.476496
1182 2 0.0879167 0.566029 0.0841746
1394 4 0.149767 0.565172 0.0288875
23 3 0.459609 0.783726 0.482732
920 5 0.0114177 0.622776 0.0862166
1033 3 0.215467 0.629182 0.180915
1031 1 0.184369 0.564549 0.145472
691 1 0.313144 0.57916 0.0547617
1032 2 0.230946 0.603041 0.131604
693 3 0.341611 0.621837 0.112385
692 2 0.36916 0.589162 0.0819657
69 4 0.2387 0.565138 0.036671
142 2 0.310938 0.558327 0.118223
1416 1 0.0247434 0.868334 0.304726
916 1 0.00482184 0.745555 0.25148
1628 6 0.43654 0.994151 0.032208
1314 4 0.0143815 0.590338 0.483913
209 4 0.461474 0.597226 0.0816507
694 4 0.371663 0.614961 0.1626
208 3 0.422736 0.568667 0.0399656
26 1 0.367129 0.525351 0.460245
466 1 0.245785 0.526387 0.147929
1561 6 0.496097 0.980719 0.31142
143 3 0.353685 0.539428 0.153903
144 4 0.41501 0.545081 0.130712
1409 4 0.315665 0.829694 0.461535
305 5 0.401857 0.972508 0.375139
1185 5 0.0989814 0.689685 0.0953884
1270 5 0.147278 0.783623 0.0683092
1269 4 0.0700178 0.787654 0.107188
918 3 0.0432814 0.718464 0.191487
1783 6 0.0367342 0.769036 0.0138293
861 1 0.00593952 0.830372 0.248434
1565 6 0.280182 0.670884 0.126157
1034 4 0.197384 0.69394 0.171994
525 5 0.24812 0.777494 0.122989
612 2 0.314274 0.7539 0.0568603
611 1 0.313822 0.706257 0.0124975
524 4 0.273389 0.824379 0.0532659
690 5 0.221505 0.711021 0.0312334
1222 2 0.00640372 0.777037 0.439261
188 3 0.48853 0.658126 0.0452703
1150 5 0.355604 0.808379 0.100174
614 4 0.37403 0.722092 0.136108
695 5 0.446968 0.678145 0.161883
613 3 0.364631 0.725836 0.0704928
190 5 0.459751 0.776071 0.122766
1149 4 0.414966 0.799782 0.0449693
189 4 0.460093 0.698207 0.0682217
1739 6 0.0457015 0.901605 0.213186
343 3 0.169341 0.947385 0.399759
1443 3 0.135128 0.968751 0.0367515
676 1 0.144529 0.863482 0.0465829
1624 6 0.0610978 0.918041 0.12411
118 3 0.15119 0.930845 0.159621
342 2 0.128256 0.981166 0.404797
1166 1 0.0527057 0.85434 0.0642688
566 1 0.152546 0.752074 0.475645
1411 1 0.49847 0.818969 0.0520583
1559 6 0.0603664 0.98726 0.0574177
1444 4 0.131638 0.922421 0.0831817
1445 5 0.199591 0.86479 0.109946
523 3 0.256358 0.868752 0.0145584
410 5 0.31384 0.900792 0.122525
522 2 0.280566 0.905866 0.0498566
1026 1 0.434478 0.561624 0.447615
521 1 0.227154 0.938023 0.0365488
573 3 0.0188474 0.948606 0.423579
1221 1 0.0335063 0.775091 0.498166
1630 6 0.368581 0.508137 0.0692181
409 4 0.354484 0.880053 0.0369815
1674 6 0.447739 0.889945 0.0232769
199 4 0.416073 0.910209 0.117392
198 3 0.413421 0.974113 0.116173
275 5 0.433595 0.815298 0.407305
1711 6 0.163884 0.970856 0.324094
1412 2 0.462715 0.853784 0.0923978
551 1 -1.80008e-05 0.959768 0.162372
1000 5 0.214707 0.519599 0.467862
1324 4 0.0416794 0.632944 0.298342
419 4 0.107851 0.602968 0.249724
420 5 0.0525289 0.559912 0.205932
418 3 0.149566 0.61175 0.298187
1655 6 0.181616 0.562005 0.227774
1513 6 0.205501 0.654385 0.258504
1325 5 0.067673 0.540665 0.316724
267 2 0.257981 0.567046 0.275651
268 3 0.280177 0.515005 0.278718
266 1 0.297075 0.575369 0.324765
1614 6 0.281912 0.589176 0.191216
1638 6 0.354309 0.570228 0.266226
126 1 0.295748 0.624102 0.274496
416 1 0.165784 0.6595 0.358949
1584 6 0.198179 0.540998 0.322123
1408 3 0.305606 0.765349 0.479751
72 2 0.00893829 0.927625 0.0245768
344 4 0.22181 0.953434 0.432415
840 5 0.292015 0.97589 0.344702
1366 1 0.409006 0.659644 0.252029
1369 4 0.487272 0.568101 0.276912
1367 2 0.428595 0.616435 0.20933
1368 3 0.475887 0.622068 0.238848
376 1 0.426708 0.516204 0.301901
1181 1 0.114354 0.507923 0.0851923
680 5 0.122377 0.664141 -0.000445592
22 2 0.478715 0.740916 0.452
1255 5 0.00243685 0.520773 0.407966
417 2 0.130655 0.666293 0.306424
1035 5 0.133852 0.75621 0.167582
917 2 0.06145 0.764089 0.22808
1694 6 0.10579 0.832357 0.24793
1323 3 0.0609253 0.706549 0.292353
1321 1 0.126066 0.716729 0.251703
1322 2 0.0770891 0.674596 0.248458
1605 6 0.328714 0.971361 0.0364892
128 3 0.330041 0.660966 0.214757
127 2 0.278196 0.660138 0.227174
620 5 0.224549 0.753845 0.222525
129 4 0.317781 0.728454 0.200497
130 5 0.339715 0.79899 0.258418
1606 6 0.480629 0.674048 0.307475
1663 6 0.349365 0.695786 0.305384
454 4 0.198187 0.892053 0.317589
615 5 0.407437 0.756315 0.212246
881 1 0.135738 0.970969 0.475328
117 2 0.107269 0.962975 0.180254
1532 6 0.19209 0.67974 0.464789
1268 3 0.0725532 0.835072 0.15272
1128 3 0.469418 0.971437 0.231102
543 3 0.162673 0.511119 0.388122
1267 2 0.117291 0.856708 0.122881
1266 1 0.140108 0.862265 0.182925
368 3 0.172191 0.908835 0.245831
367 2 0.123027 0.919296 0.230291
366 1 0.114549 0.915362 0.295447
1417 2 0.017673 0.927851 0.282378
430 5 0.0090655 0.502545 0.0387593
369 4 0.200278 0.859289 0.228996
370 5 0.281435 0.845512 0.196119
119 4 0.221309 0.932515 0.190619
455 5 0.262281 0.914721 0.270251
120 5 0.274127 0.996643 0.196662
294 4 0.365704 1.00305 0.28615
295 5 0.359615 0.908291 0.298442
200 5 0.408572 0.843134 0.167765
675 5 0.443417 0.881965 0.338327
1130 5 0.351356 0.913343 0.209452
1129 4 0.426409 0.921581 0.215361
1311 1 0.0877047 0.617482 0.376959
1746 6 0.385178 0.652288 0.0265887
542 2 0.102594 0.512357 0.395769
1414 4 0.497743 0.866529 0.162419
1450 5 0.446751 0.911332 0.435809
1759 6 0.15963 0.593984 0.409219
1313 3 0.0653061 0.594062 0.446036
1312 2 0.0414536 0.636741 0.416536
617 2 0.186278 0.760985 0.347371
959 4 0.161428 0.876892 0.437004
919 4 0.013638 0.693398 0.139114
231 1 0.223457 0.619503 0.332052
28 3 0.333273 0.515412 0.38888
1573 6 0.261463 0.617278 0.415664
27 2 0.310623 0.501965 0.441173
541 1 0.124356 0.527026 0.455671
746 1 0.337096 0.633197 0.383113
748 3 0.409703 0.659529 0.363534
1027 2 0.494445 0.578698 0.45793
1597 6 0.390127 0.572273 0.369982
207 2 0.436826 0.515124 0.0206226
1620 6 0.205424 0.977406 0.109513
1716 6 0.0347955 0.879541 0.463931
747 2 0.389073 0.651172 0.416322
884 4 0.00198166 0.988474 0.499959
1611 6 0.0822311 0.700822 0.372444
618 3 0.136416 0.746932 0.325245
1651 6 0.129565 0.79854 0.387011
451 1 0.0769599 0.860951 0.354558
1171 1 0.110903 0.704479 0.452975
1223 3 0.0369611 0.729255 0.434081
1539 6 0.0478511 0.784585 0.311504
1172 2 0.110877 0.643909 0.46867
24 4 0.448739 0.851015 0.500643
232 2 0.266827 0.66616 0.332186
233 3 0.232951 0.684066 0.375875
234 4 0.259334 0.74384 0.364507
619 4 0.198731 0.739611 0.311018
1410 5 0.355145 0.879124 0.392493
616 1 0.162985 0.723441 0.395884
1796 6 0.212167 0.798759 0.441991
244 4 0.361429 0.77189 0.369776
242 2 0.336839 0.699486 0.389806
235 5 0.247083 0.818793 0.320302
452 2 0.13471 0.887079 0.36853
749 4 0.433401 0.722802 0.376093
245 5 0.417616 0.788607 0.310906
957 2 0.0911578 0.795304 0.456119
1685 6 0.470379 0.659737 0.431618
243 3 0.343776 0.752607 0.416746
21 1 0.422782 0.716982 0.475047
241 1 0.32738 0.686252 0.455181
1731 6 0.0703974 0.986057 0.256653
677 2 0.0972883 0.830625 0.0183118
116 1 0.114905 0.992997 0.12502
341 1 0.101475 0.924366 0.425511
960 5 0.25237 0.884789 0.394567
1406 1 0.262438 0.708407 0.4501
1503 6 0.0356279 0.677173 0.497943
956 1 0.0492025 0.819582 0.4136
453 3 0.150304 0.849589 0.326377
958 3 0.110033 0.850512 0.451352
1631 6 0.0621356 0.94055 0.354103
821 1 0.498807 0.501648 0.324409
1028 3 0.500364 0.553012 0.406867
1646 6 0.492222 0.95225 0.149773
68 3 0.280034 0.513133 0.0468711
1415 5 0.478371 0.82447 0.245799
1733 6 0.164832 0.991715 0.221353
1315 5 -0.00186567 0.584981 0.567889
1175 5 0.0767516 0.599312 0.632272
1174 4 0.0796696 0.657313 0.567244
703 3 0.00651131 0.656884 0.611286
1070 5 0.168364 0.518263 0.620659
769 4 0.172399 0.619079 0.633239
1634 6 0.252527 0.580933 0.550697
767 2 0.173617 0.570712 0.555254
768 3 0.163064 0.626241 0.572027
38 3 0.307104 0.639468 0.589552
1524 6 0.185715 0.881578 0.975685
883 3 0.0671967 0.965525 0.511916
176 1 0.298528 0.561175 0.624832
177 2 0.243193 0.532747 0.633454
435 5 0.0293376 0.57483 0.979228
407 2 0.406467 0.957319 0.967601
776 1 0.334797 0.544107 0.570554
796 1 0.358294 0.522481 0.647838
1706 6 0.446503 0.619721 0.523027
37 2 0.349925 0.601974 0.596983
778 3 0.400948 0.545659 0.531444
1743 6 0.430189 0.555694 0.631885
71 1 0.00646661 0.973035 0.979488
777 2 0.362884 0.504664 0.52725
36 1 0.378946 0.651832 0.567679
1407 2 0.259414 0.742457 0.504479
1055 5 0.492778 0.677141 0.899523
701 1 0.0188797 0.718462 0.565009
1636 6 0.105681 0.74624 0.53835
679 4 0.116312 0.745987 0.988626
515 5 0.126273 0.6937 0.638856
442 2 0.0514854 0.791247 0.581618
1173 3 0.129153 0.6642 0.518992
441 1 0.0731345 0.82288 0.531316
779 4 0.447879 0.510487 0.555065
1393 3 0.147565 0.511096 0.988961
1794 6 0.382279 0.781517 0.511797
277 2 0.47467 0.532696 0.906354
512 2 0.21937 0.652672 0.533703
514 4 0.188998 0.713581 0.587169
513 3 0.244484 0.694451 0.565946
1725 6 0.275639 0.755327 0.622395
581 1 0.161226 0.785719 0.659
568 3 0.18098 0.777472 0.540281
751 1 0.46815 0.965581 0.93514
39 4 0.273171 0.635603 0.634384
1689 6 0.0917014 0.569825 0.519065
1286 1 0.333172 0.760793 0.703009
992 2 0.40021 0.722754 0.591921
991 1 0.413914 0.701345 0.533722
537 2 0.3457 0.771835 0.587842
1749 6 0.325885 0.703916 0.538935
993 3 0.434221 0.7675 0.574831
1241 1 0.435641 0.66672 0.624731
1242 2 0.418907 0.690773 0.682353
1243 3 0.391836 0.634545 0.680857
1790 6 0.463681 0.779189 0.829467
1161 1 0.0777539 0.988624 0.95817
1757 6 0.49663 0.727138 0.629233
707 2 0.0896418 0.908387 0.603358
708 3 0.0410803 0.928675 0.621128
706 1 0.0599025 0.898813 0.549445
1738 6 0.137668 0.822921 0.586483
383 3 0.0112232 0.823955 0.960798
1676 6 0.132643 0.898894 0.516459
1433 3 0.144394 0.949572 0.585566
569 4 0.234598 0.819571 0.542981
539 4 0.298597 0.824968 0.675377
570 5 0.275668 0.89746 0.523479
1432 2 0.201429 0.954292 0.579268
540 5 0.235475 0.87276 0.64547
408 3 0.372178 0.915624 0.987623
536 1 0.302646 0.802934 0.550787
25 5 0.381477 0.908472 0.511594
995 5 0.430604 0.917326 0.610143
538 3 0.338223 0.815629 0.62074
994 4 0.418813 0.836716 0.570879
1115 5 0.329425 0.898064 0.60638
810 5 0.0457509 0.571194 0.762341
180 5 0.141182 0.535986 0.76934
406 1 0.352896 0.974411 0.94353
320 5 0.137024 0.629429 0.829665
770 5 0.12951 0.61481 0.713554
179 4 0.217539 0.568986 0.72346
178 3 0.239756 0.571376 0.67489
1754 6 0.268781 0.523489 0.808393
891 1 0.30162 0.600895 0.821496
1290 5 0.226623 0.619744 0.799027
1112 2 0.464368 0.830991 0.638646
797 2 0.394362 0.532423 0.702332
43 3 0.39614 0.535857 0.784161
1747 6 0.323525 0.584813 0.704997
44 4 0.463517 0.542079 0.773135
1245 5 0.411889 0.628874 0.811228
704 4 0.00946677 0.637842 0.674234
720 5 0.139993 0.713603 0.754626
90 5 0.0315063 0.736623 0.798637
1698 6 0.0247625 0.733869 0.651788
444 4 0.0646248 0.817903 0.648723
445 5 0.0680976 0.81384 0.741232
443 3 0.0399766 0.842102 0.600077
582 2 0.224754 0.785373 0.681351
584 4 0.249739 0.787945 0.744528
40 5 0.221972 0.679083 0.683034
583 3 0.196246 0.752206 0.720489
1289 4 0.293657 0.653441 0.758349
719 4 0.201102 0.700836 0.830866
585 5 0.329359 0.814035 0.759652
1640 6 0.340035 0.688446 0.645997
1521 6 0.404615 0.780118 0.667393
1287 2 0.283306 0.721508 0.703461
1288 3 0.303028 0.715835 0.759405
1244 4 0.392799 0.626307 0.739176
1300 5 0.375773 0.725775 0.786062
1299 4 0.411431 0.801168 0.753378
1677 6 0.146725 0.584774 0.926442
1434 4 0.152959 0.932688 0.637084
1435 5 0.0812853 0.914001 0.68824
1165 5 0.0457014 0.930989 0.778582
1195 5 0.164874 0.848227 0.701767
1194 4 0.160507 0.937656 0.728519
658 3 0.486671 0.994649 0.826019
1193 3 0.169348 0.977916 0.78124
938 3 0.411309 0.901641 0.916704
1665 6 0.295504 0.974356 0.802318
312 2 0.256722 0.869217 0.740468
313 3 0.232444 0.917062 0.751364
314 4 0.225516 0.950368 0.687701
311 1 0.293037 0.888631 0.791967
1669 6 0.313539 0.934495 0.714743
1114 4 0.388643 0.868549 0.669089
563 3 0.376263 0.957974 0.761396
1787 6 0.473311 0.961466 0.747108
562 2 0.40248 0.920222 0.734179
1113 3 0.451297 0.843092 0.691337
564 4 0.398176 0.9749 0.699608
1297 2 0.446294 0.862481 0.806849
561 1 0.383955 0.880189 0.781184
939 4 0.366835 0.856117 0.941821
820 5 0.0659734 0.563172 0.85753
315 5 0.268288 0.975302 0.616928
595 5 0.0506348 0.641761 0.913158
70 5 0.237614 0.620174 0.9786
316 1 0.230457 0.52189 0.970105
638 3 0.462887 0.766044 0.726038
892 2 0.258371 0.575726 0.86118
893 3 0.274607 0.625708 0.8924
319 4 0.180508 0.548771 0.849085
317 2 0.234172 0.567131 0.923527
318 3 0.215215 0.527697 0.894224
556 1 0.355358 0.687998 0.960948
894 4 0.212223 0.641378 0.905996
937 2 0.464037 0.897229 0.937875
567 2 0.150715 0.810762 0.500894
1547 6 0.307597 0.54688 0.972783
1800 6 0.349111 0.566718 0.882757
206 1 0.426369 0.547131 0.96569
559 4 0.438121 0.606747 0.914426
557 2 0.366915 0.628926 0.940006
905 5 0.0845703 0.517839 0.688612
1147 2 0.418363 0.794789 0.931374
1015 5 0.0889461 0.827578 0.843469
980 5 0.460782 0.984584 0.535919
895 5 0.138614 0.703528 0.910149
1280 5 0.0135069 0.746187 0.903044
384 4 0.0655483 0.802708 0.940063
385 5 0.146763 0.797013 0.915716
1650 6 0.273669 0.738275 0.94286
716 1 0.28039 0.799082 0.846365
688 3 0.243542 0.828916 0.953515
717 2 0.282687 0.736082 0.827752
718 3 0.242064 0.73457 0.868047
687 2 0.237535 0.809597 0.898579
947 2 0.487469 0.634017 0.583102
187 2 0.499243 0.6786 0.993504
558 3 0.419766 0.643435 0.956214
1653 6 0.334376 0.683727 0.867263
1146 1 0.481878 0.786252 0.923049
647 2 0.304795 0.985937 0.893408
1563 6 0.431747 0.729919 0.984934
1054 4 0.420273 0.704248 0.871071
1053 3 0.386288 0.757997 0.876778
1051 1 0.324944 0.798626 0.899661
1052 2 0.361342 0.753723 0.927593
471 1 0.349614 0.915568 0.829532
1164 4 0.106615 0.961493 0.838739
560 5 0.502313 0.576442 0.85328
1014 4 0.117156 0.900556 0.889451
1013 3 0.16353 0.933377 0.909614
1645 6 0.0293189 0.931955 0.879549
1553 6 0.390161 0.838889 0.862675
1326 1 0.105217 0.993605 0.757797
639 4 0.464291 0.706814 0.750376
1011 1 0.200477 0.963273 0.972405
1298 3 0.469309 0.838893 0.762701
646 1 0.247337 0.957192 0.88409
1730 6 0.197007 0.800949 0.825886
472 2 0.355321 0.951906 0.882945
686 1 0.208213 0.865141 0.889836