created by fftool

2520 atoms
2450 bonds
4410 angles
5740 dihedrals
14 atom types
9 bond types
14 angle types
23 dihedral types
-20.000000 20.000000 xlo xhi
-20.000000 20.000000 ylo yhi
-200.000000 200.000000 zlo zhi

Masses

   1   14.007  # NA
   2   12.011  # CR
   3   12.011  # CW
   4   12.011  # C1
   5    1.008  # HCR
   6   12.011  # C1A
   7    1.008  # HCW
   8    1.008  # H1
   9   12.011  # C2
  10   12.011  # CS
  11    1.008  # HC
  12   12.011  # CT
  13   10.811  # B
  14   18.998  # FB

Bond Coeffs

   1   477.055449     1.315000  # CR-NA
   2   427.103250     1.378000  # CW-NA
   3   520.076482     1.341000  # CW-CW
   4   336.998088     1.466000  # NA-CT
   5   339.985660     1.080000  # CR-HA
   6   339.985660     1.080000  # CW-HA
   7   339.985660     1.090000  # HC-CT
   8   267.925430     1.529000  # CT-CT
   9   386.591778     1.394000  # B-F

Angle Coeffs

   1    70.004780   126.400000  # CR-NA-CT
   2    70.004780   108.000000  # CW-NA-CR
   3    70.004780   125.600000  # CW-NA-CT
   4    70.004780   109.800000  # NA-CR-NA
   5    35.002390   125.100000  # NA-CR-HA
   6    70.004780   107.100000  # NA-CW-CW
   7    35.002390   122.000000  # NA-CW-HA
   8    35.002390   130.900000  # CW-CW-HA
   9    37.500000   110.700000  # NA-CT-HC
  10    32.994742   107.800000  # HC-CT-HC
  11    58.353250   112.700000  # NA-CT-CT
  12    37.500000   110.700000  # CT-CT-HC
  13    58.353250   112.700000  # CT-CT-CT
  14    80.007170   109.500000  # F-B-F

Dihedral Coeffs

   1     0.000000     4.651052     0.000000     0.000000  # CT-NA-CR-NA
   2     0.000000     4.651052     0.000000     0.000000  # CW-NA-CR-NA
   3     0.000000     4.651052     0.000000     0.000000  # CT-NA-CR-HA
   4     0.000000     4.651052     0.000000     0.000000  # CW-NA-CR-HA
   5     0.000000     3.000000     0.000000     0.000000  # CR-NA-CW-CW
   6     0.000000     3.000000     0.000000     0.000000  # CT-NA-CW-CW
   7     0.000000     3.000000     0.000000     0.000000  # CR-NA-CW-HA
   8     0.000000     3.000000     0.000000     0.000000  # CT-NA-CW-HA
   9     0.000000    10.750478     0.000000     0.000000  # NA-CW-CW-HA
  10     0.000000    10.750478     0.000000     0.000000  # HA-CW-CW-HA
  11     0.000000    10.750478     0.000000     0.000000  # NA-CW-CW-NA
  12     0.000000     0.000000     0.000000     0.000000  # CR-NA-CT-HC
  13     0.000000     0.000000     0.124044     0.000000  # CW-NA-CT-HC
  14    -1.259345     0.000000     0.000000     0.000000  # CR-NA-CT-CT
  15    -1.709728     1.459465     0.189747     0.000000  # CW-NA-CT-CT
  16    -1.787691     0.756262    -0.287428     0.000000  # NA-CT-CT-CT
  17     0.000000     0.000000     0.300000     0.000000  # CT-CT-CT-HC
  18     0.000000     0.000000     0.087715     0.000000  # NA-CT-CT-HC
  19     0.000000     0.000000     0.300000     0.000000  # HC-CT-CT-HC
  20     1.300000    -0.050000     0.200000     0.000000  # CT-CT-CT-CT
  21     0.000000     2.000000     0.000000     0.000000  # CR-CW-NA-CT
  22     0.000000     2.200000     0.000000     0.000000  # NA-NA-CR-HA
  23     0.000000     2.200000     0.000000     0.000000  # NA-CW-CW-HA

Atoms

      1       1    1   0.150000  9.895539e+00  3.026616e+00  5.205737e+00  # NA c6c1im+
      2       1    2  -0.110000  1.017919e+01  1.772279e+00  4.931134e+00  # CR c6c1im+
      3       1    1   0.150000  1.144214e+01  1.530626e+00  5.206423e+00  # NA c6c1im+
      4       1    3  -0.130000  1.200381e+01  2.694313e+00  5.685214e+00  # CW c6c1im+
      5       1    3  -0.130000  1.103994e+01  3.626642e+00  5.684786e+00  # CW c6c1im+
      6       1    4  -0.170000  8.595185e+00  3.681994e+00  5.036274e+00  # C1 c6c1im+
      7       1    5   0.210000  9.479808e+00  1.049059e+00  4.538422e+00  # HCR c6c1im+
      8       1    6  -0.170000  1.213801e+01  2.515040e-01  5.036839e+00  # C1A c6c1im+
      9       1    7   0.210000  1.302757e+01  2.829947e+00  6.001306e+00  # HCW c6c1im+
     10       1    7   0.210000  1.114130e+01  4.654488e+00  6.000469e+00  # HCW c6c1im+
     11       1    8   0.130000  8.696029e+00  4.516557e+00  4.342419e+00  # H1 c6c1im+
     12       1    8   0.130000  7.875572e+00  2.965606e+00  4.639982e+00  # H1 c6c1im+
     13       1    8   0.130000  8.245741e+00  4.051796e+00  6.000242e+00  # H1 c6c1im+
     14       1    9   0.010000  1.116526e+01 -7.889590e-01  4.480938e+00  # C2 c6c1im+
     15       1    8   0.130000  1.296896e+01  3.785470e-01  4.342940e+00  # H1 c6c1im+
     16       1    8   0.130000  1.251867e+01 -8.621400e-02  6.000763e+00  # H1 c6c1im+
     17       1   10  -0.120000  1.189104e+01 -2.123050e+00  4.304065e+00  # CS c6c1im+
     18       1   11   0.060000  1.033419e+01 -9.172040e-01  5.174466e+00  # HC c6c1im+
     19       1   11   0.060000  1.078448e+01 -4.524430e-01  3.516642e+00  # HC c6c1im+
     20       1   10  -0.120000  1.091829e+01 -3.163512e+00  3.748164e+00  # CS c6c1im+
     21       1   11   0.060000  1.227169e+01 -2.460767e+00  5.267990e+00  # HC c6c1im+
     22       1   11   0.060000  1.272198e+01 -1.996006e+00  3.610167e+00  # HC c6c1im+
     23       1   10  -0.120000  1.164407e+01 -4.497603e+00  3.571292e+00  # CS c6c1im+
     24       1   11   0.060000  1.053751e+01 -2.826997e+00  2.783869e+00  # HC c6c1im+
     25       1   11   0.060000  1.008722e+01 -3.291758e+00  4.441692e+00  # HC c6c1im+
     26       1   12  -0.180000  1.067131e+01 -5.538066e+00  3.015390e+00  # CT c6c1im+
     27       1   11   0.060000  1.202472e+01 -4.835320e+00  4.535216e+00  # HC c6c1im+
     28       1   11   0.060000  1.247501e+01 -4.370559e+00  2.877393e+00  # HC c6c1im+
     29       1   11   0.060000  1.118871e+01 -6.489118e+00  2.889301e+00  # HC c6c1im+
     30       1   11   0.060000  1.029053e+01 -5.201550e+00  2.051095e+00  # HC c6c1im+
     31       1   11   0.060000  9.840246e+00 -5.666311e+00  3.708918e+00  # HC c6c1im+
     32       2    1   0.150000 -1.094047e+01  9.901460e-01 -5.109965e+00  # NA c6c1im+
     33       2    2  -0.110000 -9.766444e+00  3.977940e-01 -5.109991e+00  # CR c6c1im+
     34       2    1   0.150000 -9.926089e+00 -9.074790e-01 -5.109979e+00  # NA c6c1im+
     35       2    3  -0.130000 -1.127865e+01 -1.171050e+00 -5.109942e+00  # CW c6c1im+
     36       2    3  -0.130000 -1.191083e+01  1.158600e-02 -5.109933e+00  # CW c6c1im+
     37       2    4  -0.170000 -1.118600e+01  2.435441e+00 -5.109968e+00  # C1 c6c1im+
     38       2    5   0.210000 -8.813986e+00  9.069340e-01 -5.110019e+00  # HCR c6c1im+
     39       2    6  -0.170000 -8.858702e+00 -1.912388e+00 -5.110000e+00  # C1A c6c1im+
     40       2    7   0.210000 -1.174229e+01 -2.146465e+00 -5.109924e+00  # HCW c6c1im+
     41       2    7   0.210000 -1.297945e+01  1.679210e-01 -5.109907e+00  # HCW c6c1im+
     42       2    8   0.130000 -1.175339e+01  2.708117e+00 -4.220132e+00  # H1 c6c1im+
     43       2    8   0.130000 -1.023396e+01  2.966231e+00 -5.109996e+00  # H1 c6c1im+
     44       2    8   0.130000 -1.175344e+01  2.708106e+00 -5.999778e+00  # H1 c6c1im+
     45       2    9   0.010000 -7.499113e+00 -1.212846e+00 -5.110040e+00  # C2 c6c1im+
     46       2    8   0.130000 -8.945918e+00 -2.535843e+00 -4.220171e+00  # H1 c6c1im+
     47       2    8   0.130000 -8.945964e+00 -2.535855e+00 -5.999817e+00  # H1 c6c1im+
     48       2   10  -0.120000 -6.385856e+00 -2.260939e+00 -5.110062e+00  # CS c6c1im+
     49       2   11   0.060000 -7.410644e+00 -5.895670e-01 -5.999869e+00  # HC c6c1im+
     50       2   11   0.060000 -7.410598e+00 -5.895560e-01 -4.220223e+00  # HC c6c1im+
     51       2   10  -0.120000 -5.026266e+00 -1.561398e+00 -5.110102e+00  # CS c6c1im+
     52       2   11   0.060000 -6.473118e+00 -2.884407e+00 -5.999879e+00  # HC c6c1im+
     53       2   11   0.060000 -6.473072e+00 -2.884395e+00 -4.220233e+00  # HC c6c1im+
     54       2   10  -0.120000 -3.913010e+00 -2.609491e+00 -5.110124e+00  # CS c6c1im+
     55       2   11   0.060000 -4.937752e+00 -9.381070e-01 -4.220285e+00  # HC c6c1im+
     56       2   11   0.060000 -4.937798e+00 -9.381180e-01 -5.999931e+00  # HC c6c1im+
     57       2   12  -0.180000 -2.553420e+00 -1.909950e+00 -5.110164e+00  # CT c6c1im+
     58       2   11   0.060000 -4.000272e+00 -3.232958e+00 -5.999941e+00  # HC c6c1im+
     59       2   11   0.060000 -4.000226e+00 -3.232946e+00 -4.220295e+00  # HC c6c1im+
     60       2   11   0.060000 -1.759797e+00 -2.657118e+00 -5.110179e+00  # HC c6c1im+
     61       2   11   0.060000 -2.464906e+00 -1.286659e+00 -4.220347e+00  # HC c6c1im+
     62       2   11   0.060000 -2.464952e+00 -1.286670e+00 -5.999993e+00  # HC c6c1im+
     63       3    1   0.150000 -1.410731e+01  1.365481e+01  3.969342e+00  # NA c6c1im+
     64       3    2  -0.110000 -1.326633e+01  1.352461e+01  2.966835e+00  # CR c6c1im+
     65       3    1   0.150000 -1.363325e+01  1.251708e+01  2.205598e+00  # NA c6c1im+
     66       3    3  -0.130000 -1.477453e+01  1.196723e+01  2.747852e+00  # CW c6c1im+
     67       3    3  -0.130000 -1.506997e+01  1.267629e+01  3.847050e+00  # CW c6c1im+
     68       3    4  -0.170000 -1.404236e+01  1.465963e+01  5.034840e+00  # C1 c6c1im+
     69       3    5   0.210000 -1.240369e+01  1.415115e+01  2.794531e+00  # HCR c6c1im+
     70       3    6  -0.170000 -1.295365e+01  1.205369e+01  9.921030e-01  # C1A c6c1im+
     71       3    7   0.210000 -1.532705e+01  1.112398e+01  2.360499e+00  # HCW c6c1im+
     72       3    7   0.210000 -1.590522e+01  1.251158e+01  4.511600e+00  # HCW c6c1im+
     73       3    8   0.130000 -1.395309e+01  1.416117e+01  6.000075e+00  # H1 c6c1im+
     74       3    8   0.130000 -1.317612e+01  1.530208e+01  4.876783e+00  # H1 c6c1im+
     75       3    8   0.130000 -1.494950e+01  1.526378e+01  5.021007e+00  # H1 c6c1im+
     76       3    9   0.010000 -1.172724e+01  1.292791e+01  7.285080e-01  # C2 c6c1im+
     77       3    8   0.130000 -1.263959e+01  1.101826e+01  1.123824e+00  # H1 c6c1im+
     78       3    8   0.130000 -1.363599e+01  1.212087e+01  1.447550e-01  # H1 c6c1im+
     79       3   10  -0.120000 -1.101844e+01  1.244461e+01 -5.371350e-01  # CS c6c1im+
     80       3   11   0.060000 -1.204032e+01  1.396354e+01  5.960130e-01  # HC c6c1im+
     81       3   11   0.060000 -1.104392e+01  1.286093e+01  1.575081e+00  # HC c6c1im+
     82       3   10  -0.120000 -9.792020e+00  1.331883e+01 -8.007300e-01  # CS c6c1im+
     83       3   11   0.060000 -1.170078e+01  1.251178e+01 -1.384483e+00  # HC c6c1im+
     84       3   11   0.060000 -1.070437e+01  1.140918e+01 -4.054140e-01  # HC c6c1im+
     85       3   10  -0.120000 -9.083216e+00  1.283552e+01 -2.066373e+00  # CS c6c1im+
     86       3   11   0.060000 -9.108699e+00  1.325185e+01  4.584400e-02  # HC c6c1im+
     87       3   11   0.060000 -1.010510e+01  1.435446e+01 -9.332240e-01  # HC c6c1im+
     88       3   12  -0.180000 -7.856801e+00  1.370974e+01 -2.329967e+00  # CT c6c1im+
     89       3   11   0.060000 -9.765557e+00  1.290270e+01 -2.913720e+00  # HC c6c1im+
     90       3   11   0.060000 -8.769154e+00  1.180009e+01 -1.934652e+00  # HC c6c1im+
     91       3   11   0.060000 -7.351506e+00  1.336520e+01 -3.232224e+00  # HC c6c1im+
     92       3   11   0.060000 -7.173481e+00  1.364276e+01 -1.483394e+00  # HC c6c1im+
     93       3   11   0.060000 -8.169883e+00  1.474537e+01 -2.462462e+00  # HC c6c1im+
     94       4    1   0.150000 -1.456973e+01  1.364134e+01 -3.159206e+00  # NA c6c1im+
     95       4    2  -0.110000 -1.365939e+01  1.422295e+01 -2.409370e+00  # CR c6c1im+
     96       4    1   0.150000 -1.267169e+01  1.465495e+01 -3.162389e+00  # NA c6c1im+
     97       4    3  -0.130000 -1.296171e+01  1.433378e+01 -4.470677e+00  # CW c6c1im+
     98       4    3  -0.130000 -1.414461e+01  1.370208e+01 -4.468694e+00  # CW c6c1im+
     99       4    4  -0.170000 -1.581994e+01  1.303238e+01 -2.695219e+00  # C1 c6c1im+
    100       4    5   0.210000 -1.371465e+01  1.432979e+01 -1.336089e+00  # HCR c6c1im+
    101       4    6  -0.170000 -1.147000e+01  1.535572e+01 -2.699759e+00  # C1A c6c1im+
    102       4    7   0.210000 -1.235127e+01  1.455010e+01 -5.334947e+00  # HCW c6c1im+
    103       4    7   0.210000 -1.466616e+01  1.331388e+01 -5.331066e+00  # HCW c6c1im+
    104       4    8   0.130000 -1.583230e+01  1.197634e+01 -2.964924e+00  # H1 c6c1im+
    105       4    8   0.130000 -1.589272e+01  1.313110e+01 -1.612142e+00  # H1 c6c1im+
    106       4    8   0.130000 -1.666568e+01  1.353626e+01 -3.163117e+00  # H1 c6c1im+
    107       4    9   0.010000 -1.152703e+01  1.551827e+01 -1.180494e+00  # C2 c6c1im+
    108       4    8   0.130000 -1.058561e+01  1.477870e+01 -2.969960e+00  # H1 c6c1im+
    109       4    8   0.130000 -1.141898e+01  1.633862e+01 -3.168153e+00  # H1 c6c1im+
    110       4   10  -0.120000 -1.027371e+01  1.624916e+01 -6.979830e-01  # CS c6c1im+
    111       4   11   0.060000 -1.241082e+01  1.609574e+01 -9.092790e-01  # HC c6c1im+
    112       4   11   0.060000 -1.157745e+01  1.453582e+01 -7.110870e-01  # HC c6c1im+
    113       4   10  -0.120000 -1.033074e+01  1.641171e+01  8.212810e-01  # CS c6c1im+
    114       4   11   0.060000 -1.022269e+01  1.723206e+01 -1.166378e+00  # HC c6c1im+
    115       4   11   0.060000 -9.389316e+00  1.567214e+01 -9.681850e-01  # HC c6c1im+
    116       4   10  -0.120000 -9.077413e+00  1.714260e+01  1.303792e+00  # CS c6c1im+
    117       4   11   0.060000 -1.038115e+01  1.542926e+01  1.290689e+00  # HC c6c1im+
    118       4   11   0.060000 -1.121453e+01  1.698918e+01  1.092497e+00  # HC c6c1im+
    119       4   12  -0.180000 -9.134448e+00  1.730515e+01  2.823056e+00  # CT c6c1im+
    120       4   11   0.060000 -9.026396e+00  1.812550e+01  8.353980e-01  # HC c6c1im+
    121       4   11   0.060000 -8.193023e+00  1.656558e+01  1.033590e+00  # HC c6c1im+
    122       4   11   0.060000 -8.240971e+00  1.782619e+01  3.167031e+00  # HC c6c1im+
    123       4   11   0.060000 -9.184860e+00  1.632270e+01  3.292464e+00  # HC c6c1im+
    124       4   11   0.060000 -1.001823e+01  1.788262e+01  3.094272e+00  # HC c6c1im+
    125       5    1   0.150000 -3.415502e+00 -1.580558e+01  5.165422e+00  # NA c6c1im+
    126       5    2  -0.110000 -2.177939e+00 -1.541401e+01  4.954860e+00  # CR c6c1im+
    127       5    1   0.150000 -1.352418e+00 -1.641681e+01  5.160096e+00  # NA c6c1im+
    128       5    3  -0.130000 -2.099774e+00 -1.751612e+01  5.523232e+00  # CW c6c1im+
    129       5    3  -0.130000 -3.385527e+00 -1.713519e+01  5.526551e+00  # CW c6c1im+
    130       5    4  -0.170000 -4.621930e+00 -1.498203e+01  5.041060e+00  # C1 c6c1im+
    131       5    5   0.210000 -1.883673e+00 -1.441820e+01  4.657913e+00  # HCR c6c1im+
    132       5    6  -0.170000  1.071720e-01 -1.638036e+01  5.028092e+00  # C1A c6c1im+
    133       5    7   0.210000 -1.721259e+00 -1.849939e+01  5.760501e+00  # HCW c6c1im+
    134       5    7   0.210000 -4.237441e+00 -1.775392e+01  5.766996e+00  # HCW c6c1im+
    135       5    8   0.130000 -5.138761e+00 -1.494664e+01  6.000087e+00  # H1 c6c1im+
    136       5    8   0.130000 -4.343487e+00 -1.397168e+01  4.741458e+00  # H1 c6c1im+
    137       5    8   0.130000 -5.281821e+00 -1.541459e+01  4.289037e+00  # H1 c6c1im+
    138       5    9   0.010000  5.467510e-01 -1.497756e+01  4.607685e+00  # C2 c6c1im+
    139       5    8   0.130000  5.654050e-01 -1.663284e+01  5.984324e+00  # H1 c6c1im+
    140       5    8   0.130000  4.223450e-01 -1.710079e+01  4.273275e+00  # H1 c6c1im+
    141       5   10  -0.120000  2.069065e+00 -1.493954e+01  4.470008e+00  # CS c6c1im+
    142       5   11   0.060000  8.951100e-02 -1.472435e+01  3.651170e+00  # HC c6c1im+
    143       5   11   0.060000  2.325700e-01 -1.425640e+01  5.362220e+00  # HC c6c1im+
    144       5   10  -0.120000  2.508644e+00 -1.353673e+01  4.049601e+00  # CS c6c1im+
    145       5   11   0.060000  2.384238e+00 -1.565997e+01  3.715191e+00  # HC c6c1im+
    146       5   11   0.060000  2.527298e+00 -1.519201e+01  5.426240e+00  # HC c6c1im+
    147       5   10  -0.120000  4.030958e+00 -1.349872e+01  3.911924e+00  # CS c6c1im+
    148       5   11   0.060000  2.194463e+00 -1.281557e+01  4.804136e+00  # HC c6c1im+
    149       5   11   0.060000  2.051403e+00 -1.328353e+01  3.093086e+00  # HC c6c1im+
    150       5   12  -0.180000  4.470536e+00 -1.209591e+01  3.491517e+00  # CT c6c1im+
    151       5   11   0.060000  4.346131e+00 -1.421914e+01  3.157106e+00  # HC c6c1im+
    152       5   11   0.060000  4.489191e+00 -1.375119e+01  4.868156e+00  # HC c6c1im+
    153       5   11   0.060000  5.555770e+00 -1.206880e+01  3.393369e+00  # HC c6c1im+
    154       5   11   0.060000  4.156356e+00 -1.137475e+01  4.246052e+00  # HC c6c1im+
    155       5   11   0.060000  4.013296e+00 -1.184271e+01  2.535002e+00  # HC c6c1im+
    156       6    1   0.150000  9.999530e+00  5.666848e+00  3.124321e+00  # NA c6c1im+
    157       6    2  -0.110000  1.011382e+01  6.875134e+00  2.618150e+00  # CR c6c1im+
    158       6    1   0.150000  1.017836e+01  7.760298e+00  3.588482e+00  # NA c6c1im+
    159       6    3  -0.130000  1.010136e+01  7.084669e+00  4.787014e+00  # CW c6c1im+
    160       6    3  -0.130000  9.989911e+00  5.779992e+00  4.497740e+00  # CW c6c1im+
    161       6    4  -0.170000  9.899269e+00  4.413468e+00  2.370569e+00  # C1 c6c1im+
    162       6    5   0.210000  1.014934e+01  7.105895e+00  1.563689e+00  # HCR c6c1im+
    163       6    6  -0.170000  1.030921e+01  9.212002e+00  3.431666e+00  # C1A c6c1im+
    164       6    7   0.210000  1.012611e+01  7.523320e+00  5.773610e+00  # HCW c6c1im+
    165       6    7   0.210000  9.908008e+00  4.970103e+00  5.207509e+00  # HCW c6c1im+
    166       6    8   0.130000  8.958558e+00  3.918322e+00  2.611391e+00  # H1 c6c1im+
    167       6    8   0.130000  9.933514e+00  4.627557e+00  1.302350e+00  # H1 c6c1im+
    168       6    8   0.130000  1.073108e+01  3.761287e+00  2.636742e+00  # H1 c6c1im+
    169       6    9   0.010000  1.036150e+01  9.562025e+00  1.944187e+00  # C2 c6c1im+
    170       6    8   0.130000  9.453031e+00  9.706207e+00  3.890808e+00  # H1 c6c1im+
    171       6    8   0.130000  1.122555e+01  9.549172e+00  3.916160e+00  # H1 c6c1im+
    172       6   10  -0.120000  1.049798e+01  1.107611e+01  1.780632e+00  # CS c6c1im+
    173       6   11   0.060000  1.121778e+01  9.068763e+00  1.484208e+00  # HC c6c1im+
    174       6   11   0.060000  9.445253e+00  9.225798e+00  1.458857e+00  # HC c6c1im+
    175       6   10  -0.120000  1.055026e+01  1.142614e+01  2.931530e-01  # CS c6c1im+
    176       6   11   0.060000  1.141432e+01  1.141328e+01  2.265127e+00  # HC c6c1im+
    177       6   11   0.060000  9.641794e+00  1.157032e+01  2.239775e+00  # HC c6c1im+
    178       6   10  -0.120000  1.068674e+01  1.294022e+01  1.295980e-01  # CS c6c1im+
    179       6   11   0.060000  9.634016e+00  1.108991e+01 -1.921770e-01  # HC c6c1im+
    180       6   11   0.060000  1.140654e+01  1.093287e+01 -1.668260e-01  # HC c6c1im+
    181       6   12  -0.180000  1.073902e+01  1.329025e+01 -1.357880e+00  # CT c6c1im+
    182       6   11   0.060000  1.160308e+01  1.327740e+01  6.140930e-01  # HC c6c1im+
    183       6   11   0.060000  9.830557e+00  1.343443e+01  5.887410e-01  # HC c6c1im+
    184       6   11   0.060000  1.083632e+01  1.436962e+01 -1.474477e+00  # HC c6c1im+
    185       6   11   0.060000  9.822779e+00  1.295402e+01 -1.843210e+00  # HC c6c1im+
    186       6   11   0.060000  1.159530e+01  1.279699e+01 -1.817859e+00  # HC c6c1im+
    187       7    1   0.150000  1.485482e+01 -4.696074e+00 -2.482899e+00  # NA c6c1im+
    188       7    2  -0.110000  1.397871e+01 -5.580247e+00 -2.907030e+00  # CR c6c1im+
    189       7    1   0.150000  1.282942e+01 -4.988363e+00 -3.147932e+00  # NA c6c1im+
    190       7    3  -0.130000  1.297290e+01 -3.647774e+00 -2.863120e+00  # CW c6c1im+
    191       7    3  -0.130000  1.423517e+01 -3.465614e+00 -2.448659e+00  # CW c6c1im+
    192       7    4  -0.170000  1.624752e+01 -4.960902e+00 -2.109502e+00  # C1 c6c1im+
    193       7    5   0.210000  1.417380e+01 -6.634390e+00 -3.037886e+00  # HCR c6c1im+
    194       7    6  -0.170000  1.160604e+01 -5.633501e+00 -3.634016e+00  # C1A c6c1im+
    195       7    7   0.210000  1.221200e+01 -2.887009e+00 -2.956177e+00  # HCW c6c1im+
    196       7    7   0.210000  1.468222e+01 -2.530526e+00 -2.145088e+00  # HCW c6c1im+
    197       7    8   0.130000  1.640470e+01 -4.680100e+00 -1.068088e+00  # H1 c6c1im+
    198       7    8   0.130000  1.646255e+01 -6.022018e+00 -2.235585e+00  # H1 c6c1im+
    199       7    8   0.130000  1.691228e+01 -4.377775e+00 -2.746810e+00  # H1 c6c1im+
    200       7    9   0.010000  1.185959e+01 -7.128972e+00 -3.826674e+00  # C2 c6c1im+
    201       7    8   0.130000  1.080642e+01 -5.491792e+00 -2.906947e+00  # H1 c6c1im+
    202       7    8   0.130000  1.131399e+01 -5.189467e+00 -4.585669e+00  # H1 c6c1im+
    203       7   10  -0.120000  1.058363e+01 -7.801834e+00 -4.333646e+00  # CS c6c1im+
    204       7   11   0.060000  1.265869e+01 -7.271779e+00 -4.554097e+00  # HC c6c1im+
    205       7   11   0.060000  1.215112e+01 -7.574103e+00 -2.875375e+00  # HC c6c1im+
    206       7   10  -0.120000  1.083719e+01 -9.297304e+00 -4.526304e+00  # CS c6c1im+
    207       7   11   0.060000  1.029159e+01 -7.357799e+00 -5.285299e+00  # HC c6c1im+
    208       7   11   0.060000  9.784015e+00 -7.660124e+00 -3.606577e+00  # HC c6c1im+
    209       7   10  -0.120000  9.561230e+00 -9.970166e+00 -5.033277e+00  # CS c6c1im+
    210       7   11   0.060000  1.112872e+01 -9.742436e+00 -3.575005e+00  # HC c6c1im+
    211       7   11   0.060000  1.163629e+01 -9.440111e+00 -5.253728e+00  # HC c6c1im+
    212       7   12  -0.180000  9.814787e+00 -1.146564e+01 -5.225934e+00  # CT c6c1im+
    213       7   11   0.060000  9.269186e+00 -9.526132e+00 -5.984930e+00  # HC c6c1im+
    214       7   11   0.060000  8.761612e+00 -9.828457e+00 -4.306207e+00  # HC c6c1im+
    215       7   11   0.060000  8.905176e+00 -1.194531e+01 -5.587347e+00  # HC c6c1im+
    216       7   11   0.060000  1.010631e+01 -1.191077e+01 -4.274636e+00  # HC c6c1im+
    217       7   11   0.060000  1.061389e+01 -1.160844e+01 -5.953358e+00  # HC c6c1im+
    218       8    1   0.150000 -1.267880e+01 -2.407262e+00  2.864939e+00  # NA c6c1im+
    219       8    2  -0.110000 -1.299854e+01 -1.149857e+00  3.079245e+00  # CR c6c1im+
    220       8    1   0.150000 -1.266399e+01 -8.077020e-01  4.304086e+00  # NA c6c1im+
    221       8    3  -0.130000 -1.209695e+01 -1.906033e+00  4.913193e+00  # CW c6c1im+
    222       8    3  -0.130000 -1.210618e+01 -2.902909e+00  4.016290e+00  # CW c6c1im+
    223       8    4  -0.170000 -1.288948e+01 -3.159510e+00  1.624416e+00  # C1 c6c1im+
    224       8    5   0.210000 -1.346580e+01 -4.962200e-01  2.357561e+00  # HCR c6c1im+
    225       8    6  -0.170000 -1.285674e+01  5.081710e-01  4.920921e+00  # C1A c6c1im+
    226       8    7   0.210000 -1.171668e+01 -1.954811e+00  5.922854e+00  # HCW c6c1im+
    227       8    7   0.210000 -1.173474e+01 -3.905669e+00  4.167638e+00  # HCW c6c1im+
    228       8    8   0.130000 -1.353430e+01 -4.015579e+00  1.823057e+00  # H1 c6c1im+
    229       8    8   0.130000 -1.336112e+01 -2.514268e+00  8.832590e-01  # H1 c6c1im+
    230       8    8   0.130000 -1.192988e+01 -3.508789e+00  1.243269e+00  # H1 c6c1im+
    231       8    9   0.010000 -1.351801e+01  1.451290e+00  3.915393e+00  # C2 c6c1im+
    232       8    8   0.130000 -1.349499e+01  4.084930e-01  5.798868e+00  # H1 c6c1im+
    233       8    8   0.130000 -1.189058e+01  9.152830e-01  5.219079e+00  # H1 c6c1im+
    234       8   10  -0.120000 -1.371903e+01  2.823711e+00  4.558735e+00  # CS c6c1im+
    235       8   11   0.060000 -1.288019e+01  1.552140e+00  3.037262e+00  # HC c6c1im+
    236       8   11   0.060000 -1.448460e+01  1.045351e+00  3.617051e+00  # HC c6c1im+
    237       8   10  -0.120000 -1.438030e+01  3.766829e+00  3.553207e+00  # CS c6c1im+
    238       8   11   0.060000 -1.275287e+01  3.230822e+00  4.856894e+00  # HC c6c1im+
    239       8   11   0.060000 -1.435729e+01  2.724033e+00  5.436683e+00  # HC c6c1im+
    240       8   10  -0.120000 -1.458133e+01  5.139250e+00  4.196550e+00  # CS c6c1im+
    241       8   11   0.060000 -1.534690e+01  3.360890e+00  3.254865e+00  # HC c6c1im+
    242       8   11   0.060000 -1.374248e+01  3.867680e+00  2.675076e+00  # HC c6c1im+
    243       8   12  -0.180000 -1.524260e+01  6.082369e+00  3.191021e+00  # CT c6c1im+
    244       8   11   0.060000 -1.361517e+01  5.546362e+00  4.494708e+00  # HC c6c1im+
    245       8   11   0.060000 -1.521959e+01  5.039572e+00  5.074497e+00  # HC c6c1im+
    246       8   11   0.060000 -1.538591e+01  7.060746e+00  3.649650e+00  # HC c6c1im+
    247       8   11   0.060000 -1.620920e+01  5.676430e+00  2.892679e+00  # HC c6c1im+
    248       8   11   0.060000 -1.460478e+01  6.183219e+00  2.312891e+00  # HC c6c1im+
    249       9    1   0.150000  8.802544e+00  1.627833e+01 -4.892855e+00  # NA c6c1im+
    250       9    2  -0.110000  9.830454e+00  1.545841e+01 -4.911503e+00  # CR c6c1im+
    251       9    1   0.150000  1.094979e+01  1.614589e+01 -4.850773e+00  # NA c6c1im+
    252       9    3  -0.130000  1.062506e+01  1.748369e+01 -4.789563e+00  # CW c6c1im+
    253       9    3  -0.130000  9.286865e+00  1.756623e+01 -4.815789e+00  # CW c6c1im+
    254       9    4  -0.170000  7.386988e+00  1.590058e+01 -4.944445e+00  # C1 c6c1im+
    255       9    5   0.210000  9.765165e+00  1.438188e+01 -4.968193e+00  # HCR c6c1im+
    256       9    6  -0.170000  1.230805e+01  1.559428e+01 -4.848143e+00  # C1A c6c1im+
    257       9    7   0.210000  1.131789e+01  1.831013e+01 -4.731414e+00  # HCW c6c1im+
    258       9    7   0.210000  8.699071e+00  1.847166e+01 -4.782738e+00  # HCW c6c1im+
    259       9    8   0.130000  6.922784e+00  1.634808e+01 -5.823286e+00  # H1 c6c1im+
    260       9    8   0.130000  7.301851e+00  1.481544e+01 -5.002028e+00  # H1 c6c1im+
    261       9    8   0.130000  6.882341e+00  1.625696e+01 -4.046434e+00  # H1 c6c1im+
    262       9    9   0.010000  1.223959e+01  1.406890e+01 -4.927921e+00  # C2 c6c1im+
    263       9    8   0.130000  1.285833e+01  1.597819e+01 -5.707154e+00  # H1 c6c1im+
    264       9    8   0.130000  1.281789e+01  1.588707e+01 -3.930302e+00  # H1 c6c1im+
    265       9   10  -0.120000  1.365622e+01  1.349358e+01 -4.925179e+00  # CS c6c1im+
    266       9   11   0.060000  1.168999e+01  1.368393e+01 -4.068950e+00  # HC c6c1im+
    267       9   11   0.060000  1.173043e+01  1.377504e+01 -5.845801e+00  # HC c6c1im+
    268       9   10  -0.120000  1.358777e+01  1.196820e+01 -5.004957e+00  # CS c6c1im+
    269       9   11   0.060000  1.416606e+01  1.378637e+01 -4.007338e+00  # HC c6c1im+
    270       9   11   0.060000  1.420651e+01  1.387749e+01 -5.784190e+00  # HC c6c1im+
    271       9   10  -0.120000  1.500440e+01  1.139288e+01 -5.002215e+00  # CS c6c1im+
    272       9   11   0.060000  1.307861e+01  1.167434e+01 -5.922837e+00  # HC c6c1im+
    273       9   11   0.060000  1.303816e+01  1.158322e+01 -4.145986e+00  # HC c6c1im+
    274       9   12  -0.180000  1.493594e+01  9.867496e+00 -5.081993e+00  # CT c6c1im+
    275       9   11   0.060000  1.551424e+01  1.168567e+01 -4.084374e+00  # HC c6c1im+
    276       9   11   0.060000  1.555468e+01  1.177679e+01 -5.861226e+00  # HC c6c1im+
    277       9   11   0.060000  1.594584e+01  9.457360e+00 -5.080038e+00  # HC c6c1im+
    278       9   11   0.060000  1.442678e+01  9.573638e+00 -5.999873e+00  # HC c6c1im+
    279       9   11   0.060000  1.438634e+01  9.482523e+00 -4.223021e+00  # HC c6c1im+
    280      10    1   0.150000  1.336191e+01 -8.676765e+00  5.108092e+00  # NA c6c1im+
    281      10    2  -0.110000  1.206026e+01 -8.489862e+00  5.108023e+00  # CR c6c1im+
    282      10    1   0.150000  1.144349e+01 -9.651248e+00  5.108091e+00  # NA c6c1im+
    283      10    3  -0.130000  1.240122e+01 -1.064202e+01  5.108209e+00  # CW c6c1im+
    284      10    3  -0.130000  1.359682e+01 -1.003470e+01  5.108210e+00  # CW c6c1im+
    285      10    4  -0.170000  1.439100e+01 -7.632674e+00  5.108051e+00  # C1 c6c1im+
    286      10    5   0.210000  1.157114e+01 -7.526966e+00  5.107927e+00  # HCR c6c1im+
    287      10    6  -0.170000  9.992947e+00 -9.863604e+00  5.108048e+00  # C1A c6c1im+
    288      10    7   0.210000  1.222258e+01 -1.170714e+01  5.108287e+00  # HCW c6c1im+
    289      10    7   0.210000  1.456232e+01 -1.051864e+01  5.108288e+00  # HCW c6c1im+
    290      10    8   0.130000  1.501234e+01 -7.734241e+00  4.218261e+00  # H1 c6c1im+
    291      10    8   0.130000  1.391464e+01 -6.652277e+00  5.107953e+00  # H1 c6c1im+
    292      10    8   0.130000  1.501226e+01 -7.734099e+00  5.997907e+00  # H1 c6c1im+
    293      10    9   0.010000  9.279162e+00 -8.511438e+00  5.107911e+00  # C2 c6c1im+
    294      10    8   0.130000  9.707388e+00 -1.042470e+01  4.218258e+00  # H1 c6c1im+
    295      10    8   0.130000  9.707315e+00 -1.042456e+01  5.997904e+00  # H1 c6c1im+
    296      10   10  -0.120000  7.766288e+00 -8.732919e+00  5.107867e+00  # CS c6c1im+
    297      10   11   0.060000  9.563593e+00 -7.949769e+00  5.997701e+00  # HC c6c1im+
    298      10   11   0.060000  9.563666e+00 -7.949910e+00  4.218055e+00  # HC c6c1im+
    299      10   10  -0.120000  7.052503e+00 -7.380753e+00  5.107730e+00  # CS c6c1im+
    300      10   11   0.060000  7.480657e+00 -9.293874e+00  5.997723e+00  # HC c6c1im+
    301      10   11   0.060000  7.480730e+00 -9.294016e+00  4.218077e+00  # HC c6c1im+
    302      10   10  -0.120000  5.539630e+00 -7.602234e+00  5.107685e+00  # CS c6c1im+
    303      10   11   0.060000  7.337008e+00 -6.819225e+00  4.217873e+00  # HC c6c1im+
    304      10   11   0.060000  7.336935e+00 -6.819083e+00  5.997519e+00  # HC c6c1im+