created by fftool

3065 atoms
2000 bonds
1000 angles
7 atom types
4 bond types
2 angle types
-22.500000 22.500000 xlo xhi
-22.500000 22.500000 ylo yhi
-22.500000 22.500000 zlo zhi

Masses

   1   14.010  # N4
   2   12.010  # C5
   3   15.040  # C6
   4   15.040  # C1
   5   67.070  # N2
   6   57.120  # C3
   7  144.960  # PF

Bond Coeffs

   1   517.630258     1.170000  # N4-C5
   2   517.630258     1.460000  # C5-C6
   3   517.630258     2.707600  # C1-N2
   4   517.630258     3.821300  # N2-C3

Angle Coeffs

   1   143.403442   180.000000  # N4-C5-C6
   2    37.950526   116.033300  # C1-N2-C3

Atoms

      1       1    1  -0.398000  3.319593e+00  1.174132e+01 -9.583617e+00  # N4 ACN
      2       1    2   0.129000  4.049565e+00  1.132752e+01 -1.039898e+01  # C5 ACN
      3       1    3   0.269000  4.960471e+00  1.081116e+01 -1.141643e+01  # C6 ACN
      4       2    1  -0.398000  1.887070e+01  1.621652e+01 -1.033905e+00  # N4 ACN
      5       2    2   0.129000  1.777514e+01  1.662095e+01 -1.105276e+00  # C5 ACN
      6       2    3   0.269000  1.640804e+01  1.712563e+01 -1.194336e+00  # C6 ACN
      7       3    1  -0.398000  7.456189e+00 -1.644363e+00 -6.971092e+00  # N4 ACN
      8       3    2   0.129000  7.277117e+00 -1.686139e+00 -5.815632e+00  # C5 ACN
      9       3    3   0.269000  7.053661e+00 -1.738269e+00 -4.373776e+00  # C6 ACN
     10       4    1  -0.398000  5.990510e-01 -1.880042e+01 -1.552249e+01  # N4 ACN
     11       4    2   0.129000 -1.873280e-01 -1.933697e+01 -1.484233e+01  # C5 ACN
     12       4    3   0.269000 -1.168622e+00 -2.000652e+01 -1.399358e+01  # C6 ACN
     13       5    1  -0.398000 -1.387578e+01 -1.771352e+01 -1.362099e+01  # N4 ACN
     14       5    2   0.129000 -1.324303e+01 -1.698998e+01 -1.295389e+01  # C5 ACN
     15       5    3   0.269000 -1.245344e+01 -1.608711e+01 -1.212145e+01  # C6 ACN
     16       6    1  -0.398000  9.230799e+00 -1.850023e+01  1.901113e+01  # N4 ACN
     17       6    2   0.129000  8.802061e+00 -1.867292e+01  1.793630e+01  # C5 ACN
     18       6    3   0.269000  8.267055e+00 -1.888843e+01  1.659506e+01  # C6 ACN
     19       7    1  -0.398000 -7.051326e+00  2.088633e+00  3.056436e+00  # N4 ACN
     20       7    2   0.129000 -6.304385e+00  2.979618e+00  3.187291e+00  # C5 ACN
     21       7    3   0.269000 -5.372304e+00  4.091447e+00  3.350581e+00  # C6 ACN
     22       8    1  -0.398000  1.812097e+00 -8.275296e+00  1.575193e+01  # N4 ACN
     23       8    2   0.129000  1.254713e+00 -9.045684e+00  1.507022e+01  # C5 ACN
     24       8    3   0.269000  5.591730e-01 -1.000702e+01  1.421955e+01  # C6 ACN
     25       9    1  -0.398000 -4.810195e+00  1.513886e+01 -1.621230e+01  # N4 ACN
     26       9    2   0.129000 -5.735812e+00  1.575949e+01 -1.585600e+01  # C5 ACN
     27       9    3   0.269000 -6.890856e+00  1.653395e+01 -1.541138e+01  # C6 ACN
     28      10    1  -0.398000 -1.484215e+01  4.381572e+00  1.220565e+01  # N4 ACN
     29      10    2   0.129000 -1.450385e+01  5.248497e+00  1.291480e+01  # C5 ACN
     30      10    3   0.269000 -1.408169e+01  6.330301e+00  1.379972e+01  # C6 ACN
     31      11    1  -0.398000  1.672948e+01 -1.724430e+01  6.763467e+00  # N4 ACN
     32      11    2   0.129000  1.685844e+01 -1.840717e+01  6.764495e+00  # C5 ACN
     33      11    3   0.269000  1.701936e+01 -1.985828e+01  6.765778e+00  # C6 ACN
     34      12    1  -0.398000 -2.939547e+00 -8.339380e+00  1.385661e+01  # N4 ACN
     35      12    2   0.129000 -3.253469e+00 -9.464535e+00  1.392277e+01  # C5 ACN
     36      12    3   0.269000 -3.645200e+00 -1.086858e+01  1.400534e+01  # C6 ACN
     37      13    1  -0.398000  5.248645e+00 -1.787113e+01 -5.275392e+00  # N4 ACN
     38      13    2   0.129000  5.968269e+00 -1.736388e+01 -4.504844e+00  # C5 ACN
     39      13    3   0.269000  6.866262e+00 -1.673091e+01 -3.543306e+00  # C6 ACN
     40      14    1  -0.398000  7.384500e+00  8.923699e+00  1.627484e+01  # N4 ACN
     41      14    2   0.129000  6.996327e+00  9.987102e+00  1.597922e+01  # C5 ACN
     42      14    3   0.269000  6.511940e+00  1.131408e+01  1.561031e+01  # C6 ACN
     43      15    1  -0.398000 -1.385302e+01 -2.347992e+00 -6.241777e+00  # N4 ACN
     44      15    2   0.129000 -1.382461e+01 -1.721028e+00 -5.254351e+00  # C5 ACN
     45      15    3   0.269000 -1.378917e+01 -9.386630e-01 -4.022179e+00  # C6 ACN
     46      16    1  -0.398000 -1.673104e+01 -1.193277e+01  5.199035e+00  # N4 ACN
     47      16    2   0.129000 -1.775614e+01 -1.249514e+01  5.241321e+00  # C5 ACN
     48      16    3   0.269000 -1.903534e+01 -1.319691e+01  5.294088e+00  # C6 ACN
     49      17    1  -0.398000 -1.401686e+01  1.187679e+01 -1.328088e+01  # N4 ACN
     50      17    2   0.129000 -1.501493e+01  1.165262e+01 -1.384879e+01  # C5 ACN
     51      17    3   0.269000 -1.626038e+01  1.137287e+01 -1.455745e+01  # C6 ACN
     52      18    1  -0.398000 -9.804570e-01  1.724291e+01 -7.387739e+00  # N4 ACN
     53      18    2   0.129000 -2.115332e+00  1.695883e+01 -7.403727e+00  # C5 ACN
     54      18    3   0.269000 -3.531500e+00  1.660433e+01 -7.423677e+00  # C6 ACN
     55      19    1  -0.398000 -1.305779e+01 -4.394640e-01 -1.056855e+01  # N4 ACN
     56      19    2   0.129000 -1.272391e+01  6.470800e-01 -1.084576e+01  # C5 ACN
     57      19    3   0.269000 -1.230727e+01  2.002938e+00 -1.119168e+01  # C6 ACN
     58      20    1  -0.398000  3.260987e+00 -1.423605e+01 -2.381136e+00  # N4 ACN
     59      20    2   0.129000  2.858665e+00 -1.314233e+01 -2.277219e+00  # C5 ACN
     60      20    3   0.269000  2.356624e+00 -1.177750e+01 -2.147545e+00  # C6 ACN
     61      21    1  -0.398000 -2.100120e+01 -1.086765e+01  1.882098e+01  # N4 ACN
     62      21    2   0.129000 -2.100101e+01 -1.003957e+01  1.799442e+01  # C5 ACN
     63      21    3   0.269000 -2.100078e+01 -9.006253e+00  1.696300e+01  # C6 ACN
     64      22    1  -0.398000 -4.390164e+00  7.233876e+00  4.771990e-01  # N4 ACN
     65      22    2   0.129000 -4.851681e+00  8.285977e+00  2.558700e-01  # C5 ACN
     66      22    3   0.269000 -5.427592e+00  9.598854e+00 -2.031800e-02  # C6 ACN
     67      23    1  -0.398000 -1.379822e+01  3.992980e+00 -5.033964e+00  # N4 ACN
     68      23    2   0.129000 -1.351533e+01  4.743191e+00 -4.181876e+00  # C5 ACN
     69      23    3   0.269000 -1.316231e+01  5.679350e+00 -3.118586e+00  # C6 ACN
     70      24    1  -0.398000 -6.921537e+00 -1.324548e+01 -1.089358e+01  # N4 ACN
     71      24    2   0.129000 -6.442608e+00 -1.416246e+01 -1.034707e+01  # C5 ACN
     72      24    3   0.269000 -5.844971e+00 -1.530673e+01 -9.665103e+00  # C6 ACN
     73      25    1  -0.398000  5.748021e+00  4.080386e+00 -5.988539e+00  # N4 ACN
     74      25    2   0.129000  5.645785e+00  5.235974e+00 -5.836671e+00  # C5 ACN
     75      25    3   0.269000  5.518208e+00  6.677990e+00 -5.647160e+00  # C6 ACN
     76      26    1  -0.398000 -2.100000e+01  9.386444e+00  1.089435e+01  # N4 ACN
     77      26    2   0.129000 -2.100002e+01  1.055635e+01  1.090882e+01  # C5 ACN
     78      26    3   0.269000 -2.100006e+01  1.201624e+01  1.092687e+01  # C6 ACN
     79      27    1  -0.398000 -2.415903e+00 -1.257695e+01 -6.899227e+00  # N4 ACN
     80      27    2   0.129000 -2.535618e+00 -1.371798e+01 -7.128623e+00  # C5 ACN
     81      27    3   0.269000 -2.685007e+00 -1.514183e+01 -7.414878e+00  # C6 ACN
     82      28    1  -0.398000 -1.009869e+01  2.100022e+01 -1.615830e+01  # N4 ACN
     83      28    2   0.129000 -9.935652e+00  1.984991e+01 -1.602010e+01  # C5 ACN
     84      28    3   0.269000 -9.732201e+00  1.841447e+01 -1.584765e+01  # C6 ACN
     85      29    1  -0.398000 -2.099980e+01 -9.673341e+00  1.365720e+01  # N4 ACN
     86      29    2   0.129000 -2.098310e+01 -9.461311e+00  1.250670e+01  # C5 ACN
     87      29    3   0.269000 -2.096226e+01 -9.196726e+00  1.107102e+01  # C6 ACN
     88      30    1  -0.398000 -1.502763e+01  2.099091e+01  1.478021e+01  # N4 ACN
     89      30    2   0.129000 -1.420334e+01  2.099501e+01  1.394989e+01  # C5 ACN
     90      30    3   0.269000 -1.317474e+01  2.100013e+01  1.291377e+01  # C6 ACN
     91      31    1  -0.398000  1.012286e+01 -9.173353e+00 -1.683965e+01  # N4 ACN
     92      31    2   0.129000  9.629768e+00 -9.426959e+00 -1.786991e+01  # C5 ACN
     93      31    3   0.269000  9.014453e+00 -9.743426e+00 -1.915554e+01  # C6 ACN
     94      32    1  -0.398000  1.427978e+01  3.661544e+00 -3.720342e+00  # N4 ACN
     95      32    2   0.129000  1.522364e+01  2.970415e+00 -3.739784e+00  # C5 ACN
     96      32    3   0.269000  1.640144e+01  2.107981e+00 -3.764044e+00  # C6 ACN
     97      33    1  -0.398000 -1.023038e+01 -1.684994e+01 -8.911391e+00  # N4 ACN
     98      33    2   0.129000 -9.890969e+00 -1.618078e+01 -9.809121e+00  # C5 ACN
     99      33    3   0.269000 -9.467431e+00 -1.534575e+01 -1.092936e+01  # C6 ACN
    100      34    1  -0.398000 -2.009248e+00  1.168713e+01 -7.006866e+00  # N4 ACN
    101      34    2   0.129000 -1.712585e+00  1.273705e+01 -6.584288e+00  # C5 ACN
    102      34    3   0.269000 -1.342389e+00  1.404720e+01 -6.056968e+00  # C6 ACN
    103      35    1  -0.398000 -3.976059e+00  1.449829e+01  1.069300e+01  # N4 ACN
    104      35    2   0.129000 -4.236381e+00  1.341903e+01  1.106224e+01  # C5 ACN
    105      35    3   0.269000 -4.561227e+00  1.207227e+01  1.152300e+01  # C6 ACN
    106      36    1  -0.398000 -1.579052e+01  1.355917e+01 -2.046429e+01  # N4 ACN
    107      36    2   0.129000 -1.470811e+01  1.318435e+01 -2.070262e+01  # C5 ACN
    108      36    3   0.269000 -1.335741e+01  1.271663e+01 -2.100003e+01  # C6 ACN
    109      37    1  -0.398000 -1.795836e+01  1.877407e+01  1.132800e+01  # N4 ACN
    110      37    2   0.129000 -1.815338e+01  1.976501e+01  1.191868e+01  # C5 ACN
    111      37    3   0.269000 -1.839673e+01  2.100156e+01  1.265578e+01  # C6 ACN
    112      38    1  -0.398000 -5.379539e+00 -9.450880e+00  1.121250e+01  # N4 ACN
    113      38    2   0.129000 -5.358036e+00 -8.290278e+00  1.135892e+01  # C5 ACN
    114      38    3   0.269000 -5.331204e+00 -6.842006e+00  1.154164e+01  # C6 ACN
    115      39    1  -0.398000  2.109895e+00  1.497938e+01 -1.215611e+01  # N4 ACN
    116      39    2   0.129000  1.972947e+00  1.611893e+01 -1.238323e+01  # C5 ACN
    117      39    3   0.269000  1.802054e+00  1.754092e+01 -1.266666e+01  # C6 ACN
    118      40    1  -0.398000 -6.689400e+00 -2.565236e+00 -1.133503e+01  # N4 ACN
    119      40    2   0.129000 -5.562231e+00 -2.254339e+00 -1.137666e+01  # C5 ACN
    120      40    3   0.269000 -4.155677e+00 -1.866383e+00 -1.142860e+01  # C6 ACN
    121      41    1  -0.398000  2.099999e+01  1.816241e+01  5.070988e+00  # N4 ACN
    122      41    2   0.129000  2.100002e+01  1.761557e+01  6.105332e+00  # C5 ACN
    123      41    3   0.269000  2.100006e+01  1.693319e+01  7.396053e+00  # C6 ACN
    124      42    1  -0.398000  5.009605e+00  1.235416e+01  2.415284e+00  # N4 ACN
    125      42    2   0.129000  5.729629e+00  1.258347e+01  3.308526e+00  # C5 ACN
    126      42    3   0.269000  6.628120e+00  1.286961e+01  4.423171e+00  # C6 ACN
    127      43    1  -0.398000 -2.010154e+01  1.557853e+01  1.848213e+01  # N4 ACN
    128      43    2   0.129000 -2.050127e+01  1.499829e+01  1.754809e+01  # C5 ACN
    129      43    3   0.269000 -2.100007e+01  1.427423e+01  1.638253e+01  # C6 ACN
    130      44    1  -0.398000 -1.321547e+01 -2.059245e+01  7.326394e+00  # N4 ACN
    131      44    2   0.129000 -1.319622e+01 -1.953908e+01  7.835256e+00  # C5 ACN
    132      44    3   0.269000 -1.317219e+01 -1.822462e+01  8.470246e+00  # C6 ACN
    133      45    1  -0.398000 -1.512421e+01 -1.722551e+01 -1.863751e+01  # N4 ACN
    134      45    2   0.129000 -1.623356e+01 -1.687362e+01 -1.875753e+01  # C5 ACN
    135      45    3   0.269000 -1.761789e+01 -1.643452e+01 -1.890729e+01  # C6 ACN
    136      46    1  -0.398000 -4.865346e+00 -6.674297e+00  1.698155e+01  # N4 ACN
    137      46    2   0.129000 -4.991559e+00 -5.512177e+00  1.703102e+01  # C5 ACN
    138      46    3   0.269000 -5.149056e+00 -4.062011e+00  1.709275e+01  # C6 ACN
    139      47    1  -0.398000 -1.630576e+01  2.020072e+01 -4.226262e+00  # N4 ACN
    140      47    2   0.129000 -1.735276e+01  1.989411e+01 -4.648965e+00  # C5 ACN
    141      47    3   0.269000 -1.865928e+01  1.951152e+01 -5.176441e+00  # C6 ACN
    142      48    1  -0.398000 -5.328180e+00  1.910360e+01  1.074033e+01  # N4 ACN
    143      48    2   0.129000 -6.137866e+00  1.994726e+01  1.070088e+01  # C5 ACN
    144      48    3   0.269000 -7.148244e+00  2.100002e+01  1.065165e+01  # C6 ACN
    145      49    1  -0.398000  1.027407e+01 -1.298835e+01 -7.895389e+00  # N4 ACN
    146      49    2   0.129000  9.514255e+00 -1.332040e+01 -7.069963e+00  # C5 ACN
    147      49    3   0.269000  8.566116e+00 -1.373476e+01 -6.039943e+00  # C6 ACN
    148      50    1  -0.398000  1.599108e+01  1.211827e+01 -1.951335e+01  # N4 ACN
    149      50    2   0.129000  1.577945e+01  1.305992e+01 -2.017472e+01  # C5 ACN
    150      50    3   0.269000  1.551538e+01  1.423497e+01 -2.100003e+01  # C6 ACN
    151      51    1  -0.398000  9.360840e-01 -2.100010e+01  2.100028e+01  # N4 ACN
    152      51    2   0.129000  1.838427e+00 -2.025667e+01  2.095568e+01  # C5 ACN
    153      51    3   0.269000  2.964428e+00 -1.932897e+01  2.090004e+01  # C6 ACN
    154      52    1  -0.398000  6.823738e+00 -9.158595e+00 -1.614563e+01  # N4 ACN
    155      52    2   0.129000  6.775984e+00 -1.028638e+01 -1.645340e+01  # C5 ACN
    156      52    3   0.269000  6.716393e+00 -1.169370e+01 -1.683744e+01  # C6 ACN
    157      53    1  -0.398000 -1.708214e+01  1.751450e+01  1.801159e+01  # N4 ACN
    158      53    2   0.129000 -1.635377e+01  1.842913e+01  1.805427e+01  # C5 ACN
    159      53    3   0.269000 -1.544487e+01  1.957047e+01  1.810754e+01  # C6 ACN
    160      54    1  -0.398000  1.055860e+01  5.721721e+00 -2.093135e+01  # N4 ACN
    161      54    2   0.129000  1.135732e+01  4.947187e+00 -2.056934e+01  # C5 ACN
    162      54    3   0.269000  1.235401e+01  3.980675e+00 -2.011761e+01  # C6 ACN
    163      55    1  -0.398000  4.820652e+00  1.600328e+01  8.436199e+00  # N4 ACN
    164      55    2   0.129000  4.025180e+00  1.547714e+01  7.758483e+00  # C5 ACN
    165      55    3   0.269000  3.032541e+00  1.482058e+01  6.912787e+00  # C6 ACN
    166      56    1  -0.398000  2.010613e+01  6.691958e+00 -1.266522e+01  # N4 ACN
    167      56    2   0.129000  2.049154e+01  7.695350e+00 -1.220308e+01  # C5 ACN
    168      56    3   0.269000  2.097247e+01  8.947446e+00 -1.162640e+01  # C6 ACN
    169      57    1  -0.398000 -1.663097e+01  1.565607e+01  7.139121e+00  # N4 ACN
    170      57    2   0.129000 -1.603129e+01  1.566015e+01  8.143741e+00  # C5 ACN
    171      57    3   0.269000 -1.528297e+01  1.566523e+01  9.397370e+00  # C6 ACN
    172      58    1  -0.398000 -9.900217e+00 -1.509923e+01  2.356917e+00  # N4 ACN
    173      58    2   0.129000 -1.015708e+01 -1.398233e+01  2.121405e+00  # C5 ACN
    174      58    3   0.269000 -1.047761e+01 -1.258860e+01  1.827519e+00  # C6 ACN
    175      59    1  -0.398000  1.200445e+01 -8.050367e+00  1.410931e+01  # N4 ACN
    176      59    2   0.129000  1.175703e+01 -7.386005e+00  1.504006e+01  # C5 ACN
    177      59    3   0.269000  1.144828e+01 -6.556972e+00  1.620152e+01  # C6 ACN
    178      60    1  -0.398000 -4.334477e+00  1.672420e+00 -1.127336e+01  # N4 ACN
    179      60    2   0.129000 -5.265184e+00  1.214767e+00 -1.073184e+01  # C5 ACN
    180      60    3   0.269000 -6.426578e+00  6.436790e-01 -1.005611e+01  # C6 ACN
    181      61    1  -0.398000 -7.849586e+00 -8.837482e+00  5.855822e+00  # N4 ACN
    182      61    2   0.129000 -7.906282e+00 -8.682785e+00  4.697480e+00  # C5 ACN
    183      61    3   0.269000 -7.977032e+00 -8.489744e+00  3.252029e+00  # C6 ACN
    184      62    1  -0.398000 -1.677258e+01 -1.797598e+01  7.540646e+00  # N4 ACN
    185      62    2   0.129000 -1.634635e+01 -1.710351e+01  8.193349e+00  # C5 ACN
    186      62    3   0.269000 -1.581447e+01 -1.601479e+01  9.007832e+00  # C6 ACN
    187      63    1  -0.398000 -1.177594e+01  1.309098e+01  1.815694e+01  # N4 ACN
    188      63    2   0.129000 -1.149870e+01  1.208912e+01  1.869388e+01  # C5 ACN
    189      63    3   0.269000 -1.115274e+01  1.083893e+01  1.936391e+01  # C6 ACN
    190      64    1  -0.398000  7.064333e+00  6.881285e+00 -1.943668e+01  # N4 ACN
    191      64    2   0.129000  6.629294e+00  6.728700e+00 -1.836133e+01  # C5 ACN
    192      64    3   0.269000  6.086424e+00  6.538296e+00 -1.701946e+01  # C6 ACN
    193      65    1  -0.398000 -2.357475e+00 -1.443618e+01 -1.327377e+01  # N4 ACN
    194      65    2   0.129000 -2.530734e+00 -1.461990e+01 -1.213134e+01  # C5 ACN
    195      65    3   0.269000 -2.746938e+00 -1.484915e+01 -1.070576e+01  # C6 ACN
    196      66    1  -0.398000  1.469968e+01  5.414416e+00 -1.735143e+01  # N4 ACN
    197      66    2   0.129000  1.460819e+01  4.271508e+00 -1.758443e+01  # C5 ACN
    198      66    3   0.269000  1.449402e+01  2.845315e+00 -1.787519e+01  # C6 ACN
    199      67    1  -0.398000  1.823494e+01 -1.191467e+01 -1.314419e+01  # N4 ACN
    200      67    2   0.129000  1.841706e+01 -1.145591e+01 -1.420498e+01  # C5 ACN
    201      67    3   0.269000  1.864432e+01 -1.088343e+01 -1.552869e+01  # C6 ACN
    202      68    1  -0.398000  3.731253e+00  7.169131e+00  5.039513e+00  # N4 ACN
    203      68    2   0.129000  4.265187e+00  8.028772e+00  4.452288e+00  # C5 ACN
    204      68    3   0.269000  4.931463e+00  9.101486e+00  3.719512e+00  # C6 ACN
    205      69    1  -0.398000  7.824585e+00  3.620481e+00  1.077434e+01  # N4 ACN
    206      69    2   0.129000  7.634883e+00  4.475263e+00  1.155040e+01  # C5 ACN
    207      69    3   0.269000  7.398160e+00  5.541915e+00  1.251881e+01  # C6 ACN
    208      70    1  -0.398000  9.357537e+00 -7.679802e+00 -8.046252e+00  # N4 ACN
    209      70    2   0.129000  8.713936e+00 -8.504649e+00 -7.522510e+00  # C5 ACN
    210      70    3   0.269000  7.910810e+00 -9.533945e+00 -6.868953e+00  # C6 ACN
    211      71    1  -0.398000 -1.309446e+01  1.270168e+01 -9.607727e+00  # N4 ACN
    212      71    2   0.129000 -1.411937e+01  1.325255e+01 -9.730239e+00  # C5 ACN
    213      71    3   0.269000 -1.539831e+01  1.393997e+01 -9.883118e+00  # C6 ACN
    214      72    1  -0.398000 -1.447015e+01 -6.973211e+00 -5.225780e-01  # N4 ACN
    215      72    2   0.129000 -1.342763e+01 -7.017864e+00 -1.051788e+00  # C5 ACN
    216      72    3   0.269000 -1.212671e+01 -7.073585e+00 -1.712169e+00  # C6 ACN
    217      73    1  -0.398000 -1.053259e+00 -2.100172e+01  4.460202e+00  # N4 ACN
    218      73    2   0.129000 -1.287207e+00 -1.985736e+01  4.528114e+00  # C5 ACN
    219      73    3   0.269000 -1.579141e+00 -1.842936e+01  4.612860e+00  # C6 ACN
    220      74    1  -0.398000 -8.258435e+00  3.355901e+00 -1.313664e+01  # N4 ACN
    221      74    2   0.129000 -8.076948e+00  3.007204e+00 -1.423863e+01  # C5 ACN
    222      74    3   0.269000 -7.850478e+00  2.572078e+00 -1.561375e+01  # C6 ACN
    223      75    1  -0.398000 -2.081737e+01  9.539380e+00 -1.511501e+01  # N4 ACN
    224      75    2   0.129000 -2.089861e+01  1.009467e+01 -1.614163e+01  # C5 ACN
    225      75    3   0.269000 -2.100000e+01  1.078759e+01 -1.742271e+01  # C6 ACN
    226      76    1  -0.398000 -4.062435e+00  2.099659e+01  2.011024e+01  # N4 ACN
    227      76    2   0.129000 -4.545240e+00  2.099832e+01  1.904451e+01  # C5 ACN
    228      76    3   0.269000 -5.147714e+00  2.100048e+01  1.771461e+01  # C6 ACN
    229      77    1  -0.398000  7.212043e+00 -6.211256e+00  6.941534e+00  # N4 ACN
    230      77    2   0.129000  7.944353e+00 -5.715768e+00  7.707767e+00  # C5 ACN
    231      77    3   0.269000  8.858177e+00 -5.097468e+00  8.663922e+00  # C6 ACN
    232      78    1  -0.398000  9.561730e+00  8.955531e+00 -9.500970e+00  # N4 ACN
    233      78    2   0.129000  9.789197e+00  8.357053e+00 -1.048025e+01  # C5 ACN
    234      78    3   0.269000  1.007304e+01  7.610235e+00 -1.170225e+01  # C6 ACN
    235      79    1  -0.398000  5.694012e+00 -1.870412e+01  1.915432e+01  # N4 ACN
    236      79    2   0.129000  5.799104e+00 -1.759953e+01  1.878320e+01  # C5 ACN
    237      79    3   0.269000  5.930243e+00 -1.622115e+01  1.832009e+01  # C6 ACN
    238      80    1  -0.398000 -1.187600e+01  1.926284e+01 -2.800236e+00  # N4 ACN
    239      80    2   0.129000 -1.272024e+01  2.003563e+01 -2.557408e+00  # C5 ACN
    240      80    3   0.269000 -1.377373e+01  2.099996e+01 -2.254392e+00  # C6 ACN
    241      81    1  -0.398000  4.285277e+00  2.099408e+01  5.118668e+00  # N4 ACN
    242      81    2   0.129000  5.274258e+00  2.099673e+01  4.493520e+00  # C5 ACN
    243      81    3   0.269000  6.508370e+00  2.100004e+01  3.713421e+00  # C6 ACN
    244      82    1  -0.398000 -3.278626e+00  1.714673e+01 -2.097239e+01  # N4 ACN
    245      82    2   0.129000 -3.048942e+00  1.647534e+01 -2.004214e+01  # C5 ACN
    246      82    3   0.269000 -2.762326e+00  1.563754e+01 -1.888130e+01  # C6 ACN
    247      83    1  -0.398000 -1.988480e+01 -1.609183e+01 -4.674135e+00  # N4 ACN
    248      83    2   0.129000 -2.019787e+01 -1.712153e+01 -4.215224e+00  # C5 ACN
    249      83    3   0.269000 -2.058854e+01 -1.840646e+01 -3.642565e+00  # C6 ACN
    250      84    1  -0.398000 -4.400306e+00 -1.026054e+01 -1.837001e+01  # N4 ACN
    251      84    2   0.129000 -3.699667e+00 -1.070271e+01 -1.754388e+01  # C5 ACN
    252      84    3   0.269000 -2.825366e+00 -1.125447e+01 -1.651298e+01  # C6 ACN
    253      85    1  -0.398000  3.086105e+00  1.523266e+01  1.694841e+01  # N4 ACN
    254      85    2   0.129000  3.961735e+00  1.591290e+01  1.657498e+01  # C5 ACN
    255      85    3   0.269000  5.054402e+00  1.676174e+01  1.610899e+01  # C6 ACN
    256      86    1  -0.398000  9.481580e-01  8.198604e+00 -1.488829e+01  # N4 ACN
    257      86    2   0.129000  1.931100e-02  7.496988e+00 -1.477050e+01  # C5 ACN
    258      86    3   0.269000 -1.139764e+00  6.621466e+00 -1.462350e+01  # C6 ACN
    259      87    1  -0.398000 -5.060523e+00  1.304675e+01 -1.917903e+01  # N4 ACN
    260      87    2   0.129000 -5.358982e+00  1.383297e+01 -1.999247e+01  # C5 ACN
    261      87    3   0.269000 -5.731418e+00  1.481406e+01 -2.100753e+01  # C6 ACN
    262      88    1  -0.398000 -1.638934e+01 -1.801752e+01 -3.897281e+00  # N4 ACN
    263      88    2   0.129000 -1.604886e+01 -1.691455e+01 -4.088158e+00  # C5 ACN
    264      88    3   0.269000 -1.562399e+01 -1.553820e+01 -4.326347e+00  # C6 ACN
    265      89    1  -0.398000  1.050196e+01 -1.102959e+01 -1.069377e+01  # N4 ACN
    266      89    2   0.129000  9.515909e+00 -1.040121e+01 -1.065202e+01  # C5 ACN
    267      89    3   0.269000  8.285454e+00 -9.617073e+00 -1.059992e+01  # C6 ACN
    268      90    1  -0.398000 -1.191189e+01  1.600979e+01  1.636785e+01  # N4 ACN
    269      90    2   0.129000 -1.091369e+01  1.623939e+01  1.580235e+01  # C5 ACN
    270      90    3   0.269000 -9.668085e+00  1.652589e+01  1.509668e+01  # C6 ACN
    271      91    1  -0.398000 -2.100092e+01 -5.454919e+00  1.975272e+01  # N4 ACN
    272      91    2   0.129000 -2.043105e+01 -5.107233e+00  1.879185e+01  # C5 ACN
    273      91    3   0.269000 -1.971994e+01 -4.673369e+00  1.759282e+01  # C6 ACN
    274      92    1  -0.398000  7.126088e+00 -1.783610e+01  1.132727e+01  # N4 ACN
    275      92    2   0.129000  6.922035e+00 -1.782547e+01  1.247929e+01  # C5 ACN
    276      92    3   0.269000  6.667404e+00 -1.781220e+01  1.391685e+01  # C6 ACN
    277      93    1  -0.398000  2.739511e+00  1.590705e+01 -2.101077e+01  # N4 ACN
    278      93    2   0.129000  2.328739e+00  1.540286e+01 -2.003817e+01  # C5 ACN
    279      93    3   0.269000  1.816151e+00  1.477370e+01 -1.882449e+01  # C6 ACN
    280      94    1  -0.398000 -1.991833e+01  2.100000e+01 -2.641980e-01  # N4 ACN
    281      94    2   0.129000 -2.015566e+01  2.100000e+01 -1.409875e+00  # C5 ACN
    282      94    3   0.269000 -2.045181e+01  2.100000e+01 -2.839523e+00  # C6 ACN
    283      95    1  -0.398000  1.213510e+01  1.227732e+00  9.374630e+00  # N4 ACN
    284      95    2   0.129000  1.171760e+01  2.294824e+00  9.611077e+00  # C5 ACN
    285      95    3   0.269000  1.119661e+01  3.626408e+00  9.906132e+00  # C6 ACN
    286      96    1  -0.398000 -9.186317e+00  6.523513e+00 -7.549736e+00  # N4 ACN
    287      96    2   0.129000 -9.410943e+00  7.665009e+00 -7.673953e+00  # C5 ACN
    288      96    3   0.269000 -9.691245e+00  9.089441e+00 -7.828959e+00  # C6 ACN
    289      97    1  -0.398000  3.629145e+00  2.099256e+01 -2.100708e+01  # N4 ACN
    290      97    2   0.129000  2.569095e+00  2.100274e+01 -2.051201e+01  # C5 ACN
    291      97    3   0.269000  1.246299e+00  2.101545e+01 -1.989424e+01  # C6 ACN
    292      98    1  -0.398000 -2.065821e+01 -5.378662e+00 -1.757352e+01  # N4 ACN
    293      98    2   0.129000 -2.081026e+01 -5.288346e+00 -1.873007e+01  # C5 ACN
    294      98    3   0.269000 -2.100000e+01 -5.175644e+00 -2.017330e+01  # C6 ACN
    295      99    1  -0.398000  1.794231e+01 -2.436210e-01 -9.929482e+00  # N4 ACN
    296      99    2   0.129000  1.774173e+01  1.774580e-01 -1.100250e+01  # C5 ACN
    297      99    3   0.269000  1.749143e+01  7.029060e-01 -1.234147e+01  # C6 ACN
    298     100    1  -0.398000  9.037020e+00 -1.510000e+01 -1.931925e+01  # N4 ACN
    299     100    2   0.129000  8.538117e+00 -1.410566e+01 -1.968159e+01  # C5 ACN
    300     100    3   0.269000  7.915553e+00 -1.286487e+01 -2.013374e+01  # C6 ACN
    301     101    1  -0.398000  1.100496e+01 -1.750664e+01 -3.755703e+00  # N4 ACN
    302     101    2   0.129000  1.089907e+01 -1.634253e+01 -3.806063e+00  # C5 ACN
    303     101    3   0.269000  1.076694e+01 -1.488988e+01 -3.868906e+00  # C6 ACN
    304     102    1  -0.398000  3.388210e+00  1.523698e+01  3.168955e+00  # N4 ACN
    305     102    2   0.129000  3.464115e+00  1.622321e+01  3.793854e+00  # C5 ACN
    306     102    3   0.269000  3.558835e+00  1.745388e+01  4.573642e+00  # C6 ACN
    307     103    1  -0.398000 -4.529944e+00  3.648973e+00 -2.075860e+01  # N4 ACN
    308     103    2   0.129000 -5.094155e+00  2.624877e+00 -2.071625e+01  # C5 ACN
    309     103    3   0.269000 -5.798213e+00  1.346946e+00 -2.066340e+01  # C6 ACN
    310     104    1  -0.398000  5.551472e+00 -1.284864e+01  2.042056e+01  # N4 ACN
    311     104    2   0.129000  6.294841e+00 -1.371449e+01  2.067864e+01  # C5 ACN
    312     104    3   0.269000  7.222465e+00 -1.479495e+01  2.100068e+01  # C6 ACN
    313     105    1  -0.398000 -8.650852e+00  1.995044e+01  1.780443e+01  # N4 ACN
    314     105    2   0.129000 -7.946564e+00  1.951010e+01  1.862843e+01  # C5 ACN
    315     105    3   0.269000 -7.067708e+00  1.896061e+01  1.965667e+01  # C6 ACN
    316     106    1  -0.398000 -1.843258e+01 -9.309489e+00  4.144014e+00  # N4 ACN
    317     106    2   0.129000 -1.957724e+01 -9.149835e+00  4.326124e+00  # C5 ACN
    318     106    3   0.269000 -2.100562e+01 -8.950610e+00  4.553374e+00  # C6 ACN
    319     107    1  -0.398000  1.526792e+01 -1.600108e+01  9.448077e+00  # N4 ACN
    320     107    2   0.129000  1.441989e+01 -1.519506e+01  9.456424e+00  # C5 ACN
    321     107    3   0.269000  1.336166e+01 -1.418926e+01  9.466839e+00  # C6 ACN
    322     108    1  -0.398000  1.059117e+01 -2.100586e+01  1.559352e+01  # N4 ACN
    323     108    2   0.129000  1.153604e+01 -2.100767e+01  1.628352e+01  # C5 ACN
    324     108    3   0.269000  1.271513e+01 -2.100992e+01  1.714454e+01  # C6 ACN
    325     109    1  -0.398000  1.185929e+00 -1.544711e+01 -1.258590e+01  # N4 ACN
    326     109    2   0.129000  9.658560e-01 -1.435906e+01 -1.295552e+01  # C5 ACN
    327     109    3   0.269000  6.912330e-01 -1.300133e+01 -1.341676e+01  # C6 ACN
    328     110    1  -0.398000  6.166600e+00  1.464013e+01 -7.089648e+00  # N4 ACN
    329     110    2   0.129000  6.478940e+00  1.571243e+01 -7.438237e+00  # C5 ACN
    330     110    3   0.269000  6.868697e+00  1.705052e+01 -7.873229e+00  # C6 ACN
    331     111    1  -0.398000  1.112197e+01 -2.858771e+00  1.564759e+01  # N4 ACN
    332     111    2   0.129000  1.176965e+01 -1.885112e+00  1.561009e+01  # C5 ACN
    333     111    3   0.269000  1.257786e+01 -6.701200e-01  1.556328e+01  # C6 ACN
    334     112    1  -0.398000  5.810331e+00 -1.253908e+01  1.002455e+01  # N4 ACN
    335     112    2   0.129000  6.923700e+00 -1.218053e+01  1.005188e+01  # C5 ACN
    336     112    3   0.269000  8.313033e+00 -1.173310e+01  1.008599e+01  # C6 ACN
    337     113    1  -0.398000  5.110618e+00 -4.865001e+00 -3.743367e+00  # N4 ACN
    338     113    2   0.129000  6.128180e+00 -4.679011e+00 -3.196673e+00  # C5 ACN
    339     113    3   0.269000  7.397959e+00 -4.446920e+00 -2.514474e+00  # C6 ACN
    340     114    1  -0.398000  1.411001e+00  1.240077e+01 -1.656765e+01  # N4 ACN
    341     114    2   0.129000  1.192281e+00  1.244722e+01 -1.541921e+01  # C5 ACN
    342     114    3   0.269000  9.193500e-01  1.250518e+01 -1.398612e+01  # C6 ACN
    343     115    1  -0.398000 -3.832566e+00 -8.386760e-01  3.965927e+00  # N4 ACN
    344     115    2   0.129000 -4.098215e+00 -1.142427e+00  2.867717e+00  # C5 ACN
    345     115    3   0.269000 -4.429710e+00 -1.521467e+00  1.497301e+00  # C6 ACN
    346     116    1  -0.398000 -1.250321e+01 -1.567001e+01  1.891623e+01  # N4 ACN
    347     116    2   0.129000 -1.332005e+01 -1.623480e+01  1.953485e+01  # C5 ACN
    348     116    3   0.269000 -1.433935e+01 -1.693958e+01  2.030680e+01  # C6 ACN
    349     117    1  -0.398000 -1.898654e+01 -1.348416e+00  1.992758e+00  # N4 ACN