ITEM: TIMESTEP
0
ITEM: NUMBER OF ATOMS
3065
ITEM: BOX BOUNDS pp pp pp
-2.2500000000000000e+01 2.2500000000000000e+01
-2.2500000000000000e+01 2.2500000000000000e+01
-2.2500000000000000e+01 2.2500000000000000e+01
ITEM: ATOMS id type xs ys zs
134 2 0.144517 0.138589 0.0514922
135 3 0.115099 0.143179 0.0386027
649 1 0.0543971 0.128617 0.10367
721 1 0.0993591 0.0780117 0.222229
722 2 0.079087 0.0813451 0.206294
723 3 0.0538008 0.0856844 0.186434
1793 2 0.0032209 0.0427954 0.236987
2092 1 0.110356 0.0694313 0.0295869
2093 2 0.0885979 0.0676291 0.0437064
2094 3 0.0613922 0.0654295 0.0612465
2503 1 0.0773042 0.035232 0.132972
2504 2 0.0519852 0.0296521 0.131019
2505 3 0.0203724 0.0227793 0.128562
2836 4 0.136538 0.125213 0.191121
2837 5 0.127101 0.109633 0.133775
1792 1 0.0275038 0.0478798 0.244765
650 2 0.0497859 0.15006 0.0897086
133 1 0.168076 0.134907 0.0618583
13 1 0.196008 0.0957381 0.181283
14 2 0.210429 0.106571 0.20001
15 3 0.228432 0.120085 0.223373
436 1 0.251653 0.0754345 0.0616535
437 2 0.25927 0.0599402 0.0810932
438 3 0.268758 0.0406344 0.105381
1207 1 0.28084 0.0885115 0.163649
1208 2 0.282552 0.114441 0.164514
1209 3 0.284674 0.1468 0.165516
2527 1 0.314882 0.0873192 0.22959
2528 2 0.301279 0.0698171 0.243179
2542 1 0.321084 0.0400885 0.0221905
2635 1 0.181434 0.0264407 0.206055
2636 2 0.206155 0.0280044 0.198154
2637 3 0.236908 0.0301673 0.188043
2838 6 0.170047 0.041836 0.106022
2087 2 0.2689 0.16489 0.0867497
2088 3 0.241162 0.148182 0.0847264
99 3 0.303907 0.156597 0.246104
2826 6 0.351227 0.110691 0.0953221
11 2 0.495311 0.0494604 0.175201
12 3 0.487487 0.0437127 0.206158
700 1 0.416138 0.0619164 0.0546435
701 2 0.435521 0.0469326 0.0633497
702 3 0.459672 0.0283414 0.0744726
946 1 0.369404 0.135615 0.177258
947 2 0.376746 0.123638 0.199136
948 3 0.386084 0.108575 0.226313
1867 1 0.464407 0.111538 0.0815001
1868 2 0.488073 0.10098 0.083614
2543 2 0.343255 0.0494448 0.012346
2544 3 0.370933 0.0610694 3.99577e-05
2650 1 0.401998 0.0348301 0.210789
2651 2 0.377439 0.0345045 0.202262
2652 3 0.346872 0.0341694 0.191389
2824 4 0.451222 0.114589 0.168138
2825 5 0.415824 0.0761651 0.13829
1323 3 0.455729 0.112125 0.00305587
193 1 0.443679 0.154892 0.22233
194 2 0.458132 0.144121 0.241067
2523 3 0.369707 0.00229137 0.0711318
2829 6 0.0156381 0.179131 0.179345
448 1 0.124412 0.298892 0.142187
449 2 0.146367 0.291654 0.130287
589 1 0.0168521 0.267945 0.184387
651 3 0.0439684 0.176776 0.0722426
484 1 0.0568002 0.243098 0.238739
942 3 0.0589831 0.32031 0.0116745
1156 1 0.131839 0.213285 0.0413421
1157 2 0.156027 0.21391 0.050859
2827 4 0.110496 0.217556 0.109762
2828 5 0.085315 0.225141 0.163879
2938 4 0.0309151 0.318007 0.225823
3018 7 0.0320328 0.271968 0.0848751
537 3 0.16542 0.24494 0.241049
2086 1 0.29115 0.178243 0.0883783
450 3 0.173839 0.282565 0.115614
867 3 0.169219 0.315389 0.197799
1158 3 0.186219 0.214643 0.0627154
1552 1 0.222795 0.263837 0.208576
1553 2 0.23559 0.261571 0.186055
1554 3 0.251446 0.258686 0.157897
1582 1 0.231252 0.185797 0.010632
1583 2 0.250765 0.202202 0.015741
1584 3 0.275133 0.222657 0.0220993
2407 1 0.189398 0.285265 0.0385038
2408 2 0.197658 0.308315 0.0472505
2563 1 0.298363 0.213714 0.197897
2564 2 0.31203 0.217427 0.176092
2565 3 0.328907 0.221935 0.148752
2805 3 0.263293 0.306827 0.246954
3042 7 0.286144 0.292171 0.0816983
3052 7 0.185932 0.190353 0.156711
1647 3 0.317251 0.308534 0.171259
2422 1 0.246747 0.329167 0.176015
1248 3 0.243362 0.206533 0.246636
1751 2 0.426511 0.222921 0.214207
1863 3 0.428256 0.301384 0.0368757
1862 2 0.417371 0.331197 0.0301387
2107 1 0.490612 0.167418 0.126454
3064 7 0.451273 0.198819 0.0416492
2109 3 0.432704 0.171775 0.133047
2245 1 0.496388 0.262536 0.225027
2108 2 0.464851 0.169401 0.129364
250 1 0.384087 0.277714 0.0847343
251 2 0.400418 0.264574 0.100118
252 3 0.420769 0.248208 0.11937
688 1 0.45031 0.314681 0.137608
689 2 0.443342 0.305588 0.160948
690 3 0.434505 0.294369 0.19008
999 3 0.339567 0.311468 0.00970584
1750 1 0.426735 0.218696 0.188554
1490 2 0.488614 0.330445 0.0756342
1645 1 0.368393 0.283318 0.15844
1646 2 0.345627 0.294565 0.164027
327 3 0.499681 0.195302 0.193777
1752 3 0.426438 0.228211 0.246218
247 1 0.0733602 0.153624 0.405296
248 2 0.0588487 0.132868 0.399411
249 3 0.0407066 0.10697 0.392145
262 1 0.129255 0.107663 0.446725
263 2 0.138478 0.126331 0.431154
264 3 0.149988 0.1497 0.411814
905 2 0.162512 0.0326653 0.403355
906 3 0.134146 0.0483956 0.402595
1894 1 0.100849 0.0881304 0.348151
1895 2 0.0921861 0.0804597 0.324867
1896 3 0.0815292 0.0708294 0.295776
1964 2 0.0315973 0.126563 0.288046
1965 3 0.00974664 0.119166 0.265232
2310 3 0.160275 0.0613333 0.263321
2884 4 0.131274 0.154242 0.495884
2915 5 0.153653 0.1414 0.322183
1963 1 0.0491332 0.132482 0.306307
2886 6 0.00872097 0.153991 0.478648
97 1 0.274513 0.12605 0.286336
98 2 0.287625 0.139599 0.268434
622 1 0.263631 0.0421242 0.334019
623 2 0.238937 0.0341098 0.332623
624 3 0.208118 0.0241351 0.330795
904 1 0.185247 0.0200637 0.403919
949 1 0.232641 0.04263 0.460318
950 2 0.244534 0.0266597 0.4436
951 3 0.259322 0.00677932 0.422654
1233 3 0.249432 0.15116 0.473803
2308 1 0.21102 0.0815881 0.284067
2309 2 0.18848 0.0726098 0.27472
2326 1 0.322964 0.0986999 0.342335
2327 2 0.32485 0.0740752 0.350464
2328 3 0.3275 0.0435097 0.361017
2890 4 0.326627 0.108028 0.478382
2891 5 0.315147 0.122034 0.421002
2892 6 0.237571 0.102334 0.392632
2914 4 0.213241 0.140976 0.313854
2529 3 0.284295 0.0479201 0.260052
531 3 0.495079 0.0342086 0.441878
673 1 0.499673 0.105332 0.332199
72 3 0.368426 0.136325 0.29826
81 3 0.44914 0.152163 0.344044
529 1 0.470358 0.0385674 0.389099
530 2 0.481335 0.0366382 0.412589
793 1 0.427096 0.0926963 0.302959
794 2 0.441779 0.0720732 0.308883
795 3 0.460064 0.0463053 0.316253
961 1 0.375015 0.152581 0.373636
962 2 0.383245 0.127953 0.372326
963 3 0.393499 0.0972283 0.370448
1807 1 0.424427 0.0280351 0.462421
1808 2 0.415118 0.0261363 0.486623
1843 1 0.356091 0.0526785 0.431229
1844 2 0.356938 0.0272273 0.436474
1885 1 0.455032 0.10909 0.407083
1886 2 0.44138 0.105847 0.428972
1887 3 0.424271 0.102093 0.456282
2701 1 0.365881 0.0596899 0.275388
2702 2 0.374589 0.0393715 0.289075
2703 3 0.385469 0.0140656 0.306218
71 2 0.370365 0.162705 0.279472
195 3 0.476249 0.130599 0.264339
486 3 0.0975777 0.275926 0.264723
874 1 0.149542 0.223491 0.31859
1255 1 0.157987 0.305773 0.340964
1256 2 0.132893 0.312573 0.340748
1257 3 0.101557 0.320976 0.340568
1954 1 0.0659482 0.253395 0.322656
1955 2 0.0597352 0.22907 0.329416
1956 3 0.0520639 0.19876 0.338081
2020 1 0.0239765 0.266248 0.385121
2021 2 0.0153985 0.243814 0.395077
2022 3 0.00464919 0.215791 0.4074
2885 5 0.0854428 0.190307 0.481082
2916 6 0.10719 0.170901 0.257516
2994 6 0.117363 0.240715 0.399598
1633 1 0.00732322 0.242472 0.497629
485 2 0.0748837 0.257745 0.250334
216 3 0.221588 0.328455 0.470163
2804 2 0.264536 0.281781 0.26754
536 2 0.174257 0.270743 0.25862
535 1 0.181221 0.291489 0.27266
875 2 0.174456 0.230849 0.319651
876 3 0.205545 0.240063 0.320765
1042 1 0.320697 0.186264 0.478651
1147 1 0.269451 0.291427 0.43043
1148 2 0.287985 0.282978 0.446588
1149 3 0.311118 0.272411 0.466734
1231 1 0.252831 0.19255 0.432681
1232 2 0.25139 0.174134 0.450978
1246 1 0.194489 0.178527 0.262219
1247 2 0.216256 0.190931 0.255269
1681 1 0.254752 0.293342 0.347754
1682 2 0.278139 0.302515 0.341051
1683 3 0.307282 0.314085 0.332718
1714 1 0.247045 0.184499 0.352668
1715 2 0.271158 0.179159 0.344542
1716 3 0.30126 0.172349 0.334534
1725 3 0.317337 0.208348 0.407144
1876 1 0.322723 0.239868 0.342902
2731 1 0.179031 0.193385 0.462587
2732 2 0.194549 0.212063 0.47188
2733 3 0.214137 0.235259 0.483319
2803 1 0.265478 0.261599 0.283905
2992 4 0.240528 0.240457 0.387488
2993 5 0.194743 0.275236 0.40522
2350 1 0.467458 0.24971 0.474132
3058 7 0.357256 0.2902 0.255395
2597 2 0.387688 0.284426 0.376937
2643 3 0.410485 0.29672 0.456138
2598 3 0.360825 0.274907 0.392443
2596 1 0.409344 0.291925 0.364658
70 1 0.371773 0.183801 0.264341
79 1 0.447692 0.210307 0.3383
80 2 0.448308 0.184438 0.340837
2642 2 0.407424 0.318463 0.480024
1043 2 0.341348 0.179733 0.493035
1471 1 0.449563 0.315192 0.271804
1723 1 0.372313 0.210228 0.426885
1724 2 0.347852 0.209191 0.418135
1472 2 0.434374 0.325117 0.290426
1756 1 0.475196 0.294423 0.405693
1757 2 0.461832 0.272129 0.405081
1758 3 0.444962 0.244424 0.404383
1783 1 0.422214 0.189133 0.471951
1784 2 0.44037 0.183529 0.454205
1785 3 0.46302 0.176491 0.432067
1877 2 0.346445 0.234435 0.333751
1878 3 0.376156 0.227629 0.322632
2330 2 0.499438 0.282954 0.315425
2331 3 0.470287 0.274541 0.326918
2351 2 0.488143 0.265462 0.474315
184 1 0.136097 0.0934179 0.679084
185 2 0.134852 0.119138 0.682683
186 3 0.133389 0.151241 0.687143
451 1 0.0358287 0.0835723 0.681815
452 2 0.0476114 0.0909218 0.659834
453 3 0.0623308 0.100122 0.632424
520 1 0.0556009 0.159753 0.681223
1780 1 0.124229 0.0601773 0.591751
1781 2 0.131908 0.0363667 0.584675
1782 3 0.141426 0.0066663 0.575733
1958 2 0.149408 0.064151 0.518953
1959 3 0.121329 0.0798761 0.514835
2524 1 0.0488721 0.117226 0.553554
2525 2 0.0446513 0.0930676 0.544918
2526 3 0.0393737 0.0629452 0.534081
585 3 0.155445 0.0531403 0.740231
2425 1 0.114376 0.153645 0.560618
2085 3 0.0408984 0.121642 0.748221
130 1 0.206306 0.0332913 0.66577
131 2 0.208339 0.0591567 0.667459
132 3 0.21102 0.0914144 0.669671
172 1 0.28499 0.15412 0.543163
598 1 0.236158 0.0886075 0.595177
599 2 0.230289 0.0647471 0.586678
600 3 0.222989 0.0349597 0.576092
1406 2 0.181483 0.14351 0.622606
1407 3 0.166625 0.119791 0.606195
1678 1 0.268482 0.0871734 0.50254
1679 2 0.283751 0.0723689 0.517496
1680 3 0.302984 0.0539585 0.536037
1702 1 0.272351 0.102291 0.738621
1703 2 0.27277 0.0806094 0.724278
1704 3 0.273222 0.0534882 0.706477
2207 2 0.205052 0.149144 0.534133
2208 3 0.20571 0.116792 0.531773
2224 1 0.214912 0.145286 0.724361
2225 2 0.195445 0.150724 0.740715
2249 2 0.323325 0.0971548 0.622017
2250 3 0.305792 0.070549 0.615905
1405 1 0.193386 0.162438 0.635873
1957 1 0.17188 0.0515356 0.522394
2961 6 0.27806 0.165184 0.667968
3003 7 0.479312 0.146112 0.615202
217 1 0.467317 0.01444 0.601345
218 2 0.48191 0.0352584 0.595902
481 1 0.36928 0.101023 0.540539
482 2 0.379629 0.114086 0.560495
483 3 0.392784 0.130405 0.585259
1229 2 0.46506 0.073078 0.523162
1230 3 0.449724 0.0993066 0.534543
1342 1 0.471211 0.00340231 0.699335
1343 2 0.467493 0.0251779 0.685624
1344 3 0.462944 0.0523845 0.668543
1432 1 0.35514 0.0237556 0.575276
1433 2 0.375707 0.0353868 0.586125
1434 3 0.401583 0.0498025 0.599363
2248 1 0.337314 0.118509 0.626947
2338 1 0.409059 0.0971935 0.652794
2339 2 0.410532 0.118067 0.668225
2340 3 0.412509 0.144198 0.687354
2899 4 0.43126 0.0609455 0.741627
3004 7 0.359457 0.0277263 0.680616
2960 5 0.3365 0.157967 0.729153
1228 1 0.477271 0.0519706 0.514142
1809 3 0.403406 0.0236669 0.516779
423 3 0.494501 0.112536 0.715432
46 1 0.129789 0.207039 0.639911
47 2 0.104714 0.208908 0.633297
48 3 0.0734439 0.211165 0.624946
316 1 0.0993789 0.269563 0.594902
317 2 0.0806156 0.287392 0.592442
318 3 0.0570623 0.309473 0.589232
521 2 0.063183 0.180974 0.694191
522 3 0.0727664 0.207457 0.710299
1009 1 0.165409 0.324103 0.624223
1634 2 0.0243849 0.243405 0.517225
1635 3 0.045721 0.244382 0.541648
2426 2 0.127741 0.175701 0.563918
2427 3 0.144497 0.203196 0.567912
3010 7 0.137597 0.27856 0.511559
3013 7 0.0616929 0.300822 0.687781
952 1 0.164539 0.211847 0.71419
1926 3 0.203418 0.330281 0.684694
1924 1 0.17054 0.28713 0.706437
173 2 0.279262 0.178697 0.536907
174 3 0.27215 0.209327 0.528914
181 1 0.297852 0.312995 0.633433
182 2 0.302343 0.310549 0.607941
183 3 0.30803 0.307558 0.576139
953 2 0.182698 0.219451 0.697208
954 3 0.205443 0.229164 0.676208
1010 2 0.168403 0.29887 0.618712
1011 3 0.172104 0.267384 0.611819
1855 1 0.258253 0.28256 0.519024
1856 2 0.243965 0.295336 0.536591
1857 3 0.226172 0.311309 0.558521
1925 2 0.185124 0.306315 0.696676
2206 1 0.204555 0.175081 0.535874
2275 1 0.25551 0.255454 0.619929
2276 2 0.243752 0.23513 0.608761
2277 3 0.228913 0.20978 0.594985
2485 1 0.311531 0.232264 0.711734
2486 2 0.302077 0.255649 0.705432
2487 3 0.2902 0.284815 0.697626
1609 1 0.324469 0.237944 0.568088
1610 2 0.330089 0.214021 0.576581
112 1 0.354054 0.28919 0.744869
3005 7 0.458517 0.30566 0.642726
2944 4 0.451291 0.294329 0.530607
1560 3 0.459533 0.254262 0.736174
565 1 0.401529 0.22304 0.577985
566 2 0.421789 0.216862 0.562905
567 3 0.446898 0.20909 0.543885
1051 1 0.433516 0.212818 0.680376
1052 2 0.413277 0.221791 0.694009
1053 3 0.38818 0.233053 0.711213
1327 1 0.358008 0.200981 0.652238
1328 2 0.361388 0.225438 0.644086
1329 3 0.365656 0.255981 0.634008
1558 1 0.445343 0.310956 0.736442
1559 2 0.451635 0.28573 0.736243
1611 3 0.336929 0.184073 0.587019
1942 1 0.374919 0.29939 0.550071
1943 2 0.374732 0.278621 0.53443
1944 3 0.374523 0.252708 0.514909
2029 1 0.369643 0.322418 0.68066
2030 2 0.36951 0.329568 0.655662
1044 3 0.367052 0.171496 0.511038
113 2 0.366686 0.311357 0.749871
583 1 0.108449 0.0807092 0.761375
584 2 0.129328 0.0684248 0.751932
854 2 0.135845 0.157618 0.946138
855 3 0.119769 0.130469 0.953698
937 1 0.12744 0.118574 0.87428
938 2 0.135852 0.11126 0.850791
939 3 0.146432 0.10212 0.821513
1005 3 0.0756897 0.15453 0.821602
2084 2 0.0275992 0.150671 0.753973
2551 1 0.0191543 0.103339 0.846308
2552 2 0.0377694 0.0949715 0.862415
2553 3 0.0609445 0.0845007 0.882563
1004 2 0.0900999 0.164571 0.794322
346 1 0.226043 0.139178 0.923033
347 2 0.21645 0.135143 0.94686
348 3 0.204481 0.12987 0.976551
88 1 0.172741 0.0113159 0.803675
1309 1 0.223128 0.0457193 0.859199
1310 2 0.20888 0.0599717 0.875626
1311 3 0.191053 0.0777134 0.896121
2006 2 0.317338 0.0596266 0.87135
2007 3 0.290188 0.0679662 0.855667
2266 1 0.233536 0.0388223 0.767405
2267 2 0.230455 0.0602731 0.781771
2268 3 0.226629 0.0871397 0.799553
2476 1 0.261972 0.146351 0.836129
2959 4 0.318714 0.130283 0.779527
1470 3 0.323997 0.138501 0.879283
2901 6 0.323634 0.0158916 0.782895
2477 2 0.259279 0.158082 0.813082
2226 3 0.171234 0.15746 0.761236
385 1 0.452647 0.0790734 0.909632
386 2 0.427935 0.0738256 0.91578
387 3 0.397144 0.0671568 0.923528
1057 1 0.490835 0.0761132 0.847552
1058 2 0.496924 0.0917253 0.827672
1060 1 0.485611 0.0328579 0.784925
1250 2 0.380393 0.0913778 0.788782
1251 3 0.390943 0.0929341 0.819424
1322 2 0.486723 0.119076 0.996446
3011 7 0.470171 0.0210349 0.977482
1465 1 0.417905 0.0294885 0.843718
1466 2 0.437266 0.021416 0.85908
1467 3 0.46121 0.0111491 0.878416
1468 1 0.381545 0.129597 0.884252
1469 2 0.355939 0.133506 0.882004
2005 1 0.339148 0.0530919 0.883904
2811 6 0.462221 0.161466 0.905019
2900 5 0.406978 0.012122 0.767062
1249 1 0.371918 0.0900644 0.764237
87 3 0.0170538 0.252254 0.764036
61 1 0.00220757 0.297282 0.912192
62 2 0.0233695 0.301288 0.897627
63 3 0.0496503 0.306354 0.879289
85 1 0.0262529 0.295077 0.802732
86 2 0.0221338 0.276067 0.785478
853 1 0.148809 0.179323 0.940068
1003 1 0.101578 0.172578 0.77241
1198 1 0.0860097 0.297119 0.942328
1199 2 0.101464 0.316999 0.948807
1504 1 0.0953597 0.267035 0.813648
1505 2 0.10279 0.263148 0.789038
1506 3 0.112159 0.258297 0.758357
2083 1 0.0169652 0.173954 0.758536
2570 2 0.0166498 0.207113 0.835865
2571 3 0.0406722 0.227591 0.843363
2926 4 0.124609 0.191222 0.875015
2927 5 0.12529 0.248946 0.891977
3027 7 0.0366163 0.173169 0.927387
2129 2 0.172769 0.269873 0.965325
2130 3 0.175209 0.241395 0.980676
409 1 0.249494 0.249961 0.937029
410 2 0.262795 0.272187 0.939276
411 3 0.27956 0.299833 0.941983
478 1 0.172568 0.282819 0.789145
479 2 0.189037 0.266267 0.777708
480 3 0.209557 0.245566 0.76346
748 1 0.176905 0.18801 0.828122
749 2 0.19227 0.190494 0.848949
750 3 0.211417 0.193618 0.874955
767 2 0.289835 0.331959 0.77378
768 3 0.263937 0.312446 0.774849
2128 1 0.170804 0.292614 0.952876
2478 3 0.255879 0.172571 0.784253
2533 1 0.278082 0.323747 0.851407
2722 1 0.28004 0.240609 0.781869
2723 2 0.279314 0.242938 0.807754
2724 3 0.278246 0.245755 0.840059
2928 6 0.194281 0.293391 0.87016
1237 1 0.329166 0.186826 0.819398
1760 2 0.469517 0.241136 0.961094
3046 7 0.432863 0.168344 0.77894
1179 3 0.358795 0.170658 0.957316
34 1 0.422686 0.292045 0.828596
35 2 0.411932 0.275972 0.811217
36 3 0.398538 0.255726 0.789692
1759 1 0.495247 0.244866 0.961255
430 1 0.435968 0.31855 0.966882
431 2 0.413341 0.308788 0.958594
432 3 0.385193 0.296373 0.948287
637 1 0.459928 0.294108 0.908725
638 2 0.449043 0.273842 0.896608
639 3 0.435558 0.24843 0.881607
1177 1 0.370871 0.216157 0.922677
1178 2 0.365474 0.195906 0.938065
1238 2 0.35033 0.194269 0.832539
1239 3 0.376711 0.20338 0.849082
1761 3 0.437417 0.236423 0.960852
1630 1 0.340597 0.281352 0.823126
1631 2 0.34565 0.28146 0.84863
1632 3 0.351789 0.281576 0.880488
292 1 0.0258424 0.373726 0.0811088
293 2 0.0250433 0.382937 0.0568081
294 3 0.0241699 0.394437 0.0264827
580 1 0.0312603 0.485452 0.0928441
581 2 0.0529129 0.495716 0.0827533
1072 1 0.0734214 0.415938 0.23922
940 1 0.102171 0.355967 0.0283796
1171 1 0.132488 0.383166 0.183024
1172 2 0.133208 0.408348 0.189454
1173 3 0.134039 0.439823 0.197284
1189 1 0.0768194 0.439444 0.0489072
1190 2 0.0859088 0.42141 0.0652827
1191 3 0.0970538 0.398765 0.0856694
1319 2 0.164584 0.398944 0.111059
1320 3 0.165301 0.430023 0.120345
1499 2 0.0658591 0.495854 0.220709
1500 3 0.0399501 0.482405 0.234869
1591 1 0.115314 0.486986 0.137862
2026 1 0.154866 0.454181 0.0498714
2939 5 0.0622056 0.340685 0.179705
2940 6 0.043464 0.42051 0.157619
1318 1 0.163895 0.37403 0.103655
2027 2 0.162673 0.431002 0.0410534
941 2 0.0829277 0.340073 0.0210938
574 1 0.287652 0.4876 0.0962843
820 1 0.301784 0.378934 0.168875
821 2 0.287123 0.392013 0.185904
822 3 0.26888 0.408542 0.207037
865 1 0.194274 0.354291 0.233501
866 2 0.18311 0.336945 0.217674
997 1 0.309385 0.361515 0.00999928
998 2 0.322795 0.339241 0.0098117
1048 1 0.276287 0.488036 0.0194625
1049 2 0.254337 0.482254 0.0321423
1050 3 0.226981 0.475012 0.048012
1168 1 0.217675 0.479313 0.124322
1169 2 0.202753 0.492322 0.141177
1828 1 0.233519 0.407332 0.0743052
1829 2 0.248881 0.413882 0.0942335
1830 3 0.268024 0.422283 0.119045
2028 3 0.172236 0.402051 0.0299618
2041 1 0.21444 0.455749 0.203569
2042 2 0.2316 0.47483 0.20775
2423 2 0.232761 0.349434 0.167671
2424 3 0.215136 0.374729 0.157563
2466 3 0.307309 0.425652 0.0410845
575 2 0.312757 0.481217 0.0985253
2043 3 0.253124 0.498751 0.211884
2409 3 0.207994 0.336988 0.058371
3028 7 0.34035 0.470186 0.199419
2465 2 0.334644 0.43826 0.0289813
454 1 0.337988 0.40182 0.103373
455 2 0.346953 0.380789 0.0909901
456 3 0.358484 0.354597 0.0757045
576 3 0.344104 0.473266 0.101123
628 1 0.478123 0.359028 0.190513
629 2 0.45903 0.36487 0.207167
630 3 0.435225 0.372116 0.227986
677 2 0.458672 0.438953 0.192271
678 3 0.430506 0.454239 0.197336
1491 3 0.46911 0.356145 0.0790695
1861 1 0.408786 0.355113 0.0246342
2920 4 0.482283 0.419474 0.121096
2464 1 0.356551 0.448376 0.0192993
2561 2 0.43466 0.474251 0.0214512
2587 1 0.431585 0.417585 0.0748797
2588 2 0.418763 0.422033 0.0970565
2589 3 0.402819 0.427697 0.12474
2728 1 0.373309 0.38265 0.197961
2729 2 0.379152 0.369593 0.17625
2730 3 0.38663 0.353331 0.149189
676 1 0.481245 0.426681 0.188289
2562 3 0.437789 0.486797 0.0512078
546 3 0.120706 0.651731 0.243443
463 1 0.0351886 0.620491 0.152354
464 2 0.0380606 0.59699 0.1631
465 3 0.0415266 0.567639 0.176485
582 3 0.079927 0.508428 0.0700533
811 1 0.101711 0.598544 0.198838
812 2 0.117605 0.580729 0.209134
813 3 0.137386 0.558461 0.221998
1498 1 0.086618 0.506754 0.209473
1592 2 0.113657 0.51288 0.139509
1593 3 0.111724 0.545208 0.141469
1623 3 0.147353 0.646778 0.0438081
1908 3 0.0833106 0.664597 0.126711
2323 1 0.0896262 0.585406 0.0807658
2324 2 0.0659766 0.596195 0.0802334
2325 3 0.0364591 0.609643 0.0795141
1899 3 0.158656 0.564472 0.0746267
545 2 0.148246 0.635354 0.248536
220 1 0.30613 0.580374 0.19574
221 2 0.314185 0.565438 0.176042
222 3 0.324018 0.547129 0.151127
356 2 0.29935 0.624586 0.0088645
357 3 0.267017 0.62728 0.00885104
823 1 0.251289 0.545735 0.153097
824 2 0.246633 0.546214 0.127522
825 3 0.240689 0.546484 0.0956277
955 1 0.287208 0.623291 0.145401
956 2 0.2987 0.623019 0.12208
957 3 0.312767 0.622731 0.0928449
1069 1 0.276196 0.560649 0.0307507
1070 2 0.29529 0.554817 0.0474066
1071 3 0.318903 0.54752 0.0684262
1170 3 0.18407 0.508179 0.16244
1621 1 0.200329 0.625202 0.0318171
1622 2 0.176767 0.634836 0.0371099
1854 3 0.318491 0.650542 0.217958
1897 1 0.197021 0.544154 0.0354977
1898 2 0.179864 0.553195 0.0528157
2176 1 0.179183 0.579583 0.161975
2177 2 0.19979 0.58862 0.175002
2178 3 0.225544 0.599929 0.191173
2768 2 0.237686 0.646221 0.0938348
2769 3 0.220773 0.620163 0.103191
355 1 0.325263 0.622472 0.00875698
971 2 0.438166 0.635921 0.243409
2343 3 0.384208 0.592967 0.182146
2342 2 0.374991 0.622932 0.17379
2341 1 0.368151 0.647255 0.167658
2469 3 0.384131 0.650225 0.0951065
2081 2 0.461145 0.6053 0.134252
178 1 0.407995 0.539741 0.240032
3019 7 0.414807 0.523283 0.127746
2082 3 0.487251 0.587182 0.127702
972 3 0.417987 0.652584 0.224232
2080 1 0.440013 0.619499 0.139525
258 3 0.486846 0.656909 0.183868
307 1 0.379656 0.574223 0.0371564
308 2 0.379165 0.550445 0.0266511
309 3 0.378205 0.5207 0.0137305
415 1 0.450467 0.556849 0.0349069
416 2 0.447485 0.580112 0.0461282
417 3 0.443842 0.609231 0.0599651
460 1 0.0209153 0.46848 0.487744
461 2 0.0232968 0.443862 0.479727
462 3 0.0262872 0.413169 0.469645
712 1 0.0726652 0.342531 0.270178
713 2 0.0968414 0.351915 0.268321
842 2 0.165306 0.427246 0.275747
843 3 0.155211 0.433731 0.305892
1105 1 0.0615344 0.462286 0.305184
1106 2 0.0817254 0.476565 0.297157
1134 3 0.00972225 0.494543 0.354098
1300 1 0.137908 0.397996 0.389084
1301 2 0.143196 0.391099 0.413588
1302 3 0.149787 0.382471 0.444162
1603 1 0.0513845 0.452501 0.397462
1604 2 0.0740118 0.453914 0.384734
1605 3 0.102301 0.45571 0.36895
2462 2 0.11787 0.454602 0.482276
2463 3 0.100704 0.449587 0.455206
2779 1 0.0918926 0.397003 0.323227
2780 2 0.0698736 0.393022 0.336467
2781 3 0.0423578 0.388129 0.352947
1074 3 0.0277873 0.400319 0.272225
3025 7 0.0669927 0.337161 0.430433
1073 2 0.0531398 0.408994 0.253932
1107 3 0.10685 0.494458 0.287096
714 3 0.127044 0.363553 0.266074
43 1 0.187945 0.450164 0.367983
44 2 0.182214 0.457948 0.392119
45 3 0.174999 0.467767 0.422189
215 2 0.200942 0.345307 0.488667
494 2 0.324623 0.442765 0.488106
679 1 0.264221 0.487578 0.402403
727 1 0.28686 0.449247 0.272986
728 2 0.273264 0.468065 0.284693
729 3 0.256006 0.491297 0.299358
741 3 0.327155 0.386356 0.253129
994 1 0.191317 0.431112 0.480625
995 2 0.208112 0.422945 0.498714
1369 1 0.2406 0.430952 0.427529
1370 2 0.253763 0.41368 0.441826
1371 3 0.270016 0.392006 0.45968
1589 2 0.224972 0.495141 0.496601
1590 3 0.243289 0.486982 0.471095
2287 1 0.225922 0.424778 0.305658
2288 2 0.233893 0.404114 0.292039
2289 3 0.244029 0.378151 0.275432
2858 5 0.286314 0.42012 0.356421
2859 6 0.220893 0.368283 0.372044
841 1 0.173343 0.421791 0.25163
119 2 0.376506 0.450505 0.292485
118 1 0.35451 0.449785 0.30633
475 1 0.458477 0.391386 0.292547
476 2 0.483457 0.393368 0.285614
495 3 0.350364 0.435598 0.469703
523 1 0.396792 0.483391 0.348975
524 2 0.414361 0.486026 0.367959
625 1 0.471911 0.342649 0.473496
626 2 0.478457 0.352249 0.450237
627 3 0.486531 0.364582 0.421335
739 1 0.378673 0.383439 0.280571
740 2 0.355771 0.384659 0.268324
120 3 0.404031 0.451488 0.275338
1473 3 0.415276 0.337298 0.313654
1510 1 0.393801 0.43235 0.407806
1511 2 0.399298 0.418329 0.386612
1512 3 0.406103 0.400847 0.360141
1765 1 0.472233 0.425041 0.386173
1766 2 0.472462 0.435017 0.362165
1767 3 0.47253 0.447868 0.332374
2223 3 0.491043 0.350903 0.346287
2436 3 0.336984 0.478989 0.401549
2857 4 0.336197 0.394025 0.335184
2893 4 0.41692 0.385707 0.459354
2894 5 0.454596 0.432597 0.460837
3031 7 0.341988 0.357065 0.419157
2641 1 0.405343 0.335907 0.499191
525 3 0.436157 0.489575 0.391728
2435 2 0.359014 0.497602 0.416411
2070 3 0.0270359 0.592563 0.496345
2155 1 0.138782 0.665279 0.346258
2842 4 0.1632 0.61543 0.494838
762 3 0.151209 0.540032 0.457153
1132 1 0.0400737 0.533751 0.323157
1133 2 0.0265628 0.516292 0.336892
1333 1 0.0966608 0.51872 0.413186
1334 2 0.0764712 0.533815 0.406821
1335 3 0.0512542 0.552644 0.398934
2038 1 0.0926514 0.580408 0.320084
2039 2 0.117665 0.586965 0.31738
2040 3 0.148911 0.595118 0.314237
2068 1 0.0733793 0.578774 0.463513
2069 2 0.0527097 0.584855 0.478067
2185 1 0.0412987 0.618806 0.266754
2186 2 0.0481232 0.594022 0.262864
2187 3 0.0566719 0.563094 0.258061
2188 1 0.126848 0.614847 0.430985
2189 2 0.112919 0.616581 0.4091
2190 3 0.095347 0.618999 0.381933
2574 3 0.142249 0.52456 0.356532
55 1 0.174993 0.507311 0.255235
56 2 0.191991 0.526697 0.258592
57 3 0.212932 0.55116 0.262545
67 1 0.17132 0.584022 0.384752
68 2 0.185124 0.597191 0.402416
69 3 0.202027 0.613652 0.424687
286 1 0.299924 0.660414 0.34312
544 1 0.170274 0.622181 0.252693
680 2 0.245702 0.504778 0.396303
681 3 0.222709 0.526414 0.388828
760 1 0.205594 0.557757 0.46915
761 2 0.181414 0.549824 0.463821
976 1 0.271953 0.606242 0.265355
977 2 0.282686 0.582757 0.262313
978 3 0.296215 0.553519 0.25847
1387 1 0.214696 0.570751 0.331397
1388 2 0.225047 0.594571 0.330173
1389 3 0.237853 0.624341 0.328629
2011 1 0.263144 0.632208 0.400337
2012 2 0.269932 0.654961 0.410931
2281 1 0.3039 0.527029 0.459111
2282 2 0.291004 0.547686 0.45
2283 3 0.274891 0.573526 0.438806
2572 1 0.18731 0.505289 0.32469
2573 2 0.167246 0.513866 0.338828
3038 7 0.306515 0.552379 0.352019
970 1 0.454447 0.622912 0.258956
835 1 0.367175 0.603272 0.251817
179 2 0.38975 0.532941 0.257262
180 3 0.366997 0.524385 0.27875
836 2 0.353836 0.610493 0.272934
837 3 0.337425 0.619709 0.299361
982 1 0.469147 0.540642 0.344193
983 2 0.464044 0.548332 0.319886
984 3 0.457606 0.557781 0.289523
1351 1 0.401619 0.589007 0.32292
1352 2 0.398743 0.573393 0.343509
1353 3 0.395295 0.554277 0.369496
1657 1 0.414647 0.591376 0.461916
1658 2 0.391436 0.580437 0.466114
1659 3 0.36249 0.566747 0.471342
2988 6 0.355538 0.634932 0.402126
2238 3 0.405036 0.660354 0.303797
2434 1 0.376734 0.512442 0.428317
2782 1 0.494154 0.597925 0.445696
2783 2 0.481509 0.577196 0.4364
2784 3 0.465272 0.551703 0.424606
2895 6 0.424686 0.503307 0.49712
2986 4 0.461077 0.616021 0.340319
2987 5 0.440012 0.6302 0.394867
2682 3 0.466894 0.663129 0.472638
349 1 0.0871441 0.491687 0.554381
2415 3 0.136534 0.346546 0.74306
1331 2 0.0622815 0.392667 0.747803
1332 3 0.0342067 0.380656 0.73684
1363 1 0.0390596 0.459824 0.722969
1364 2 0.0514212 0.451695 0.701589
1365 3 0.066741 0.44158 0.674838
1568 2 0.0619031 0.360669 0.527605
1569 3 0.0913131 0.367909 0.515974
2401 1 0.0849119 0.397259 0.591641
2402 2 0.0674496 0.414651 0.583358
2403 3 0.0454874 0.436182 0.573027
2461 1 0.131569 0.458726 0.503986
2704 1 0.11998 0.456056 0.627539
2705 2 0.134059 0.477719 0.624625
2709 3 0.152143 0.363706 0.566647
2758 1 0.11652 0.387702 0.684234
2759 2 0.134929 0.389698 0.665983
2760 3 0.157967 0.392391 0.643297
1567 1 0.0383572 0.354906 0.537006
927 3 0.0144247 0.367857 0.609855
553 1 0.167768 0.425242 0.748168
730 1 0.229064 0.450641 0.708458
731 2 0.205678 0.454479 0.697766
732 3 0.176519 0.45919 0.684342
996 3 0.229153 0.412773 0.521219
1438 1 0.225396 0.471482 0.583134
1439 2 0.202543 0.462425 0.574666
1440 3 0.174019 0.451173 0.564063
1501 1 0.308968 0.388479 0.637696
1502 2 0.310119 0.377254 0.66112
1503 3 0.311506 0.36317 0.690315
1778 2 0.315812 0.407224 0.572479
1779 3 0.286322 0.42071 0.571413
1918 1 0.23395 0.388187 0.656655
1919 2 0.243669 0.411264 0.649654
1920 3 0.255839 0.44008 0.641043
2296 1 0.30654 0.460081 0.691192
2297 2 0.293168 0.47835 0.703976
2383 1 0.281968 0.35892 0.523887
2384 2 0.307554 0.357322 0.519551
2707 1 0.205185 0.383108 0.581676
2708 2 0.181634 0.374402 0.574926
1775 2 0.272968 0.400366 0.741924
214 1 0.184382 0.358834 0.503458
1776 3 0.246234 0.385108 0.731671
493 1 0.304114 0.448555 0.503002
343 1 0.410075 0.460218 0.59047
344 2 0.391287 0.458447 0.572584
345 3 0.367827 0.456178 0.550288
1270 1 0.479936 0.400808 0.614639
1271 2 0.454324 0.396511 0.613395
1272 3 0.422354 0.391194 0.611888
1303 1 0.469431 0.475969 0.636156
1477 1 0.373787 0.490027 0.661104
1478 2 0.362693 0.470537 0.647948
1479 3 0.348578 0.446413 0.631474
1528 1 0.427705 0.411139 0.534201
1529 2 0.449058 0.423003 0.543108
1530 3 0.475713 0.437907 0.554062
1777 1 0.339478 0.396496 0.573373
2031 3 0.369212 0.338403 0.624445
2125 1 0.440497 0.387112 0.726172
2126 2 0.445206 0.402872 0.706036
2127 3 0.45124 0.422614 0.681006
2174 2 0.447769 0.49237 0.723122
2175 3 0.434684 0.497327 0.69385
2359 1 0.381097 0.405224 0.676801
2360 2 0.3733 0.409334 0.701261
2361 3 0.363693 0.414424 0.73183
2945 5 0.480484 0.341905 0.553071
2385 3 0.339513 0.355535 0.514253
1304 2 0.492683 0.487583 0.636818
2173 1 0.458288 0.488532 0.746588
350 2 0.0803755 0.501961 0.531476
351 3 0.0722914 0.51498 0.502879
1087 1 0.0221733 0.517593 0.60604
1088 2 0.0280252 0.537317 0.590143
1089 3 0.0353778 0.562023 0.570439
1110 3 0.113099 0.651442 0.728951
1264 1 0.149697 0.587631 0.555055
1265 2 0.149247 0.562289 0.549257
1279 1 0.135707 0.587802 0.696377
1348 1 0.0296489 0.65535 0.54818
1480 1 0.122873 0.51 0.688549
1481 2 0.10409 0.516976 0.705117
1482 3 0.0807097 0.525643 0.725875
2314 1 0.0533489 0.631222 0.623662
2315 2 0.0441785 0.641598 0.645667
2316 3 0.0327137 0.654436 0.67317
2320 1 0.0937462 0.616359 0.52393
2321 2 0.095683 0.630827 0.545445
2322 3 0.0982502 0.648997 0.572201
2346 3 0.118771 0.641799 0.651661
2497 1 0.104507 0.556268 0.609791
2498 2 0.0875887 0.558787 0.629373
2499 3 0.0663661 0.562025 0.653699
1266 3 0.148862 0.530658 0.542051
1280 2 0.159473 0.597802 0.699721
2706 3 0.151784 0.504668 0.621132
1588 1 0.210462 0.501788 0.517126
2298 3 0.27666 0.501391 0.719764
2815 4 0.332201 0.513985 0.519452
3017 7 0.327242 0.643952 0.504413
406 1 0.214272 0.559753 0.574675
407 2 0.22007 0.546692 0.596395
408 3 0.227532 0.530675 0.623606
1129 1 0.201092 0.635907 0.630374
1130 2 0.186343 0.614684 0.627535