created by fftool

1500 atoms
1000 bonds
500 angles
2 atom types
1 bond types
1 angle types
-12.500000 12.500000 xlo xhi
-12.500000 12.500000 ylo yhi
-12.500000 12.500000 zlo zhi

Masses

   1   15.999  # O
   2   12.011  # C

Bond Coeffs

   1   339.985660     1.149000  # C-O

Angle Coeffs

   1   147.705545   180.000000  # O-C-O

Atoms

      1       1    1  -0.325600  3.369160e+00 -7.825570e-01  1.898775e+00  # O CO2
      2       1    2   0.651200  4.411100e+00 -7.377580e-01  2.381016e+00  # C CO2
      3       1    1  -0.325600  5.453039e+00 -6.929590e-01  2.863257e+00  # O CO2
      4       2    1  -0.325600 -1.740009e+00 -6.424300e-01 -4.724900e-01  # O CO2
      5       2    2   0.651200 -1.635691e+00 -1.564240e-01  5.634240e-01  # C CO2
      6       2    1  -0.325600 -1.531374e+00  3.295820e-01  1.599337e+00  # O CO2
      7       3    1  -0.325600 -1.645950e-01  9.224549e+00 -5.732465e+00  # O CO2
      8       3    2   0.651200 -1.275936e+00  9.180118e+00 -5.444112e+00  # C CO2
      9       3    1  -0.325600 -2.387278e+00  9.135686e+00 -5.155759e+00  # O CO2
     10       4    1  -0.325600  6.955830e-01  7.257173e+00  1.103323e+01  # O CO2
     11       4    2   0.651200  9.112960e-01  6.421540e+00  1.179177e+01  # C CO2
     12       4    1  -0.325600  1.127010e+00  5.585908e+00  1.255032e+01  # O CO2
     13       5    1  -0.325600 -3.838057e+00 -1.194951e+01 -8.654073e+00  # O CO2
     14       5    2   0.651200 -2.914035e+00 -1.155327e+01 -9.210291e+00  # C CO2
     15       5    1  -0.325600 -1.990013e+00 -1.115703e+01 -9.766508e+00  # O CO2
     16       6    1  -0.325600  2.103335e+00  3.256636e+00 -2.174108e+00  # O CO2
     17       6    2   0.651200  1.546429e+00  4.041440e+00 -2.801914e+00  # C CO2
     18       6    1  -0.325600  9.895240e-01  4.826245e+00 -3.429719e+00  # O CO2
     19       7    1  -0.325600  1.083182e+01 -4.824860e-01  1.247411e+01  # O CO2
     20       7    2   0.651200  1.166564e+01  2.127620e-01  1.209784e+01  # C CO2
     21       7    1  -0.325600  1.249947e+01  9.080110e-01  1.172158e+01  # O CO2
     22       8    1  -0.325600  9.079328e+00  1.250101e+01  9.439275e+00  # O CO2
     23       8    2   0.651200  9.667523e+00  1.244462e+01  1.042469e+01  # C CO2
     24       8    1  -0.325600  1.025572e+01  1.238824e+01  1.141011e+01  # O CO2
     25       9    1  -0.325600 -1.251841e+01  7.526806e+00  3.343391e+00  # O CO2
     26       9    2   0.651200 -1.244602e+01  6.380803e+00  3.302925e+00  # C CO2
     27       9    1  -0.325600 -1.237362e+01  5.234800e+00  3.262459e+00  # O CO2
     28      10    1  -0.325600  1.249063e+01  9.721654e+00  9.703250e-01  # O CO2
     29      10    2   0.651200  1.249538e+01  8.627858e+00  6.184870e-01  # C CO2
     30      10    1  -0.325600  1.250013e+01  7.534063e+00  2.666500e-01  # O CO2
     31      11    1  -0.325600  1.043512e+01 -2.878085e+00  1.667547e+00  # O CO2
     32      11    2   0.651200  9.342992e+00 -2.589746e+00  1.878050e+00  # C CO2
     33      11    1  -0.325600  8.250861e+00 -2.301407e+00  2.088553e+00  # O CO2
     34      12    1  -0.325600  3.180230e+00 -7.774151e+00 -6.835615e+00  # O CO2
     35      12    2   0.651200  3.692264e+00 -6.865008e+00 -6.354489e+00  # C CO2
     36      12    1  -0.325600  4.204298e+00 -5.955865e+00 -5.873364e+00  # O CO2
     37      13    1  -0.325600  5.907171e+00 -3.658570e-01 -1.002789e+01  # O CO2
     38      13    2   0.651200  6.528290e+00 -1.292986e+00 -9.754317e+00  # C CO2
     39      13    1  -0.325600  7.149410e+00 -2.220116e+00 -9.480744e+00  # O CO2
     40      14    1  -0.325600 -1.142805e+00  6.796383e+00  6.889971e+00  # O CO2
     41      14    2   0.651200 -1.689717e+00  7.770043e+00  6.619648e+00  # C CO2
     42      14    1  -0.325600 -2.236629e+00  8.743703e+00  6.349324e+00  # O CO2
     43      15    1  -0.325600 -3.694670e-01 -5.469116e+00  1.250509e+01  # O CO2
     44      15    2   0.651200 -4.976570e-01 -5.110912e+00  1.142091e+01  # C CO2
     45      15    1  -0.325600 -6.258470e-01 -4.752709e+00  1.033672e+01  # O CO2
     46      16    1  -0.325600 -4.433710e+00  7.249728e+00 -4.680890e-01  # O CO2
     47      16    2   0.651200 -3.732431e+00  8.152891e+00 -3.553730e-01  # C CO2
     48      16    1  -0.325600 -3.031152e+00  9.056054e+00 -2.426570e-01  # O CO2
     49      17    1  -0.325600 -1.398328e+00 -5.381870e+00  7.774400e+00  # O CO2
     50      17    2   0.651200 -2.374275e+00 -5.050741e+00  7.266382e+00  # C CO2
     51      17    1  -0.325600 -3.350222e+00 -4.719611e+00  6.758364e+00  # O CO2
     52      18    1  -0.325600  3.944792e+00 -1.098289e+01 -1.054407e+01  # O CO2
     53      18    2   0.651200  4.191221e+00 -9.924212e+00 -1.017168e+01  # C CO2
     54      18    1  -0.325600  4.437651e+00 -8.865535e+00 -9.799290e+00  # O CO2
     55      19    1  -0.325600 -1.249725e+01 -1.875053e+00  5.534114e+00  # O CO2
     56      19    2   0.651200 -1.250416e+01 -2.096349e+00  6.661581e+00  # C CO2
     57      19    1  -0.325600 -1.251108e+01 -2.317645e+00  7.789048e+00  # O CO2
     58      20    1  -0.325600  1.196128e+01 -6.606300e-02  3.931051e+00  # O CO2
     59      20    2   0.651200  1.111363e+01 -6.699310e-01  4.417920e+00  # C CO2
     60      20    1  -0.325600  1.026599e+01 -1.273799e+00  4.904789e+00  # O CO2
     61      21    1  -0.325600 -2.477596e+00  4.188611e+00 -4.506709e+00  # O CO2
     62      21    2   0.651200 -3.560579e+00  3.844709e+00 -4.336176e+00  # C CO2
     63      21    1  -0.325600 -4.643561e+00  3.500807e+00 -4.165644e+00  # O CO2
     64      22    1  -0.325600  3.277960e+00 -2.185404e+00 -1.247672e+01  # O CO2
     65      22    2   0.651200  2.904228e+00 -3.271779e+00 -1.249447e+01  # C CO2
     66      22    1  -0.325600  2.530496e+00 -4.358154e+00 -1.251222e+01  # O CO2
     67      23    1  -0.325600 -4.510335e+00  1.035295e+01 -1.250619e+01  # O CO2
     68      23    2   0.651200 -3.665269e+00  1.108825e+01 -1.225046e+01  # C CO2
     69      23    1  -0.325600 -2.820202e+00  1.182356e+01 -1.199473e+01  # O CO2
     70      24    1  -0.325600  8.093194e+00 -8.857390e-01 -3.274750e-01  # O CO2
     71      24    2   0.651200  8.814111e+00 -1.697998e+00 -7.025960e-01  # C CO2
     72      24    1  -0.325600  9.535028e+00 -2.510256e+00 -1.077717e+00  # O CO2
     73      25    1  -0.325600  4.564060e-01  9.316633e+00  2.196958e+00  # O CO2
     74      25    2   0.651200 -2.952670e-01  9.925388e+00  1.576791e+00  # C CO2
     75      25    1  -0.325600 -1.046940e+00  1.053414e+01  9.566240e-01  # O CO2
     76      26    1  -0.325600 -8.972544e+00  2.964622e+00  2.229141e+00  # O CO2
     77      26    2   0.651200 -1.011226e+01  2.896133e+00  2.357834e+00  # C CO2
     78      26    1  -0.325600 -1.125197e+01  2.827644e+00  2.486527e+00  # O CO2
     79      27    1  -0.325600  6.619721e+00 -1.202002e+01 -9.805097e+00  # O CO2
     80      27    2   0.651200  6.896107e+00 -1.226021e+01 -8.716005e+00  # C CO2
     81      27    1  -0.325600  7.172493e+00 -1.250040e+01 -7.626914e+00  # O CO2
     82      28    1  -0.325600  3.575542e+00 -3.046762e+00  1.152694e+01  # O CO2
     83      28    2   0.651200  4.215263e+00 -2.228787e+00  1.201875e+01  # C CO2
     84      28    1  -0.325600  4.854984e+00 -1.410813e+00  1.251056e+01  # O CO2
     85      29    1  -0.325600 -7.965050e-01 -2.470486e+00  8.228532e+00  # O CO2
     86      29    2   0.651200 -1.761049e+00 -2.817156e+00  8.747835e+00  # C CO2
     87      29    1  -0.325600 -2.725592e+00 -3.163826e+00  9.267139e+00  # O CO2
     88      30    1  -0.325600 -9.396815e+00  1.125159e+01  5.373977e+00  # O CO2
     89      30    2   0.651200 -8.932341e+00  1.188544e+01  6.212247e+00  # C CO2
     90      30    1  -0.325600 -8.467868e+00  1.251929e+01  7.050516e+00  # O CO2
     91      31    1  -0.325600 -9.009043e+00  7.328523e+00 -1.034321e+01  # O CO2
     92      31    2   0.651200 -8.599261e+00  7.420595e+00 -1.141270e+01  # C CO2
     93      31    1  -0.325600 -8.189478e+00  7.512666e+00 -1.248218e+01  # O CO2
     94      32    1  -0.325600 -4.276379e+00 -6.295485e+00  4.145726e+00  # O CO2
     95      32    2   0.651200 -5.221048e+00 -6.598667e+00  3.566171e+00  # C CO2
     96      32    1  -0.325600 -6.165716e+00 -6.901848e+00  2.986617e+00  # O CO2
     97      33    1  -0.325600 -1.129871e+01  1.250620e+01 -4.691122e+00  # O CO2
     98      33    2   0.651200 -1.028482e+01  1.250530e+01 -4.150547e+00  # C CO2
     99      33    1  -0.325600 -9.270928e+00  1.250441e+01 -3.609971e+00  # O CO2
    100      34    1  -0.325600  1.891216e+00 -2.519222e+00 -2.020987e+00  # O CO2
    101      34    2   0.651200  1.318802e+00 -2.148525e+00 -1.096256e+00  # C CO2
    102      34    1  -0.325600  7.463870e-01 -1.777828e+00 -1.715260e-01  # O CO2
    103      35    1  -0.325600 -1.602420e-01  4.946055e+00  5.063154e+00  # O CO2
    104      35    2   0.651200 -1.181616e+00  5.238223e+00  4.625395e+00  # C CO2
    105      35    1  -0.325600 -2.202991e+00  5.530390e+00  4.187635e+00  # O CO2
    106      36    1  -0.325600  2.164036e+00  1.250115e+01 -9.994657e+00  # O CO2
    107      36    2   0.651200  2.360890e+00  1.187120e+01 -1.093519e+01  # C CO2
    108      36    1  -0.325600  2.557744e+00  1.124124e+01 -1.187572e+01  # O CO2
    109      37    1  -0.325600 -6.565930e+00  5.577420e-01 -8.537000e-03  # O CO2
    110      37    2   0.651200 -5.457617e+00  2.641780e-01  6.671700e-02  # C CO2
    111      37    1  -0.325600 -4.349304e+00 -2.938600e-02  1.419710e-01  # O CO2
    112      38    1  -0.325600 -1.227367e+01  1.004975e+01 -3.932128e+00  # O CO2
    113      38    2   0.651200 -1.232178e+01  9.154678e+00 -3.213287e+00  # C CO2
    114      38    1  -0.325600 -1.236988e+01  8.259605e+00 -2.494446e+00  # O CO2
    115      39    1  -0.325600  6.341209e+00 -9.619806e+00  5.111163e+00  # O CO2
    116      39    2   0.651200  5.864342e+00 -1.062613e+01  4.828139e+00  # C CO2
    117      39    1  -0.325600  5.387474e+00 -1.163246e+01  4.545115e+00  # O CO2
    118      40    1  -0.325600 -2.092477e+00 -7.569796e+00  5.973042e+00  # O CO2
    119      40    2   0.651200 -3.176613e+00 -7.516162e+00  6.349836e+00  # C CO2
    120      40    1  -0.325600 -4.260749e+00 -7.462528e+00  6.726630e+00  # O CO2
    121      41    1  -0.325600 -4.105804e+00  8.094793e+00  4.440247e+00  # O CO2
    122      41    2   0.651200 -4.494506e+00  7.018227e+00  4.540829e+00  # C CO2
    123      41    1  -0.325600 -4.883208e+00  5.941661e+00  4.641412e+00  # O CO2
    124      42    1  -0.325600 -3.051640e+00 -1.253516e+01 -1.175956e+00  # O CO2
    125      42    2   0.651200 -2.142743e+00 -1.241277e+01 -1.868145e+00  # C CO2
    126      42    1  -0.325600 -1.233845e+00 -1.229037e+01 -2.560334e+00  # O CO2
    127      43    1  -0.325600 -5.863578e+00 -9.946233e+00  1.164878e+00  # O CO2
    128      43    2   0.651200 -5.042437e+00 -9.214880e+00  1.498122e+00  # C CO2
    129      43    1  -0.325600 -4.221297e+00 -8.483526e+00  1.831365e+00  # O CO2
    130      44    1  -0.325600  1.656262e+00  2.691700e+00 -1.250172e+01  # O CO2
    131      44    2   0.651200  2.704539e+00  3.040115e+00 -1.218561e+01  # C CO2
    132      44    1  -0.325600  3.752815e+00  3.388531e+00 -1.186951e+01  # O CO2
    133      45    1  -0.325600 -3.317698e+00 -6.173804e+00  9.590441e+00  # O CO2
    134      45    2   0.651200 -4.437853e+00 -6.256730e+00  9.348411e+00  # C CO2
    135      45    1  -0.325600 -5.558007e+00 -6.339657e+00  9.106381e+00  # O CO2
    136      46    1  -0.325600  3.767161e+00  7.700701e+00  7.907750e+00  # O CO2
    137      46    2   0.651200  4.715234e+00  8.347405e+00  7.963729e+00  # C CO2
    138      46    1  -0.325600  5.663306e+00  8.994108e+00  8.019707e+00  # O CO2
    139      47    1  -0.325600 -1.075109e+01 -8.748889e+00 -1.192338e+01  # O CO2
    140      47    2   0.651200 -1.001933e+01 -9.558921e+00 -1.156479e+01  # C CO2
    141      47    1  -0.325600 -9.287583e+00 -1.036895e+01 -1.120619e+01  # O CO2
    142      48    1  -0.325600  4.798253e+00  8.158969e+00 -5.244370e+00  # O CO2
    143      48    2   0.651200  5.454414e+00  7.257101e+00 -4.968166e+00  # C CO2
    144      48    1  -0.325600  6.110576e+00  6.355234e+00 -4.691963e+00  # O CO2
    145      49    1  -0.325600 -6.388109e+00  3.098237e+00  1.058693e+01  # O CO2
    146      49    2   0.651200 -6.869800e+00  2.696111e+00  1.154947e+01  # C CO2
    147      49    1  -0.325600 -7.351491e+00  2.293984e+00  1.251200e+01  # O CO2
    148      50    1  -0.325600 -8.259489e+00  1.091106e+01 -1.168816e+01  # O CO2
    149      50    2   0.651200 -7.462907e+00  1.013282e+01 -1.140533e+01  # C CO2
    150      50    1  -0.325600 -6.666326e+00  9.354572e+00 -1.112250e+01  # O CO2
    151      51    1  -0.325600 -3.007170e-01  1.250375e+01 -1.044663e+00  # O CO2
    152      51    2   0.651200  5.179480e-01  1.250270e+01 -1.850881e+00  # C CO2
    153      51    1  -0.325600  1.336612e+00  1.250165e+01 -2.657099e+00  # O CO2
    154      52    1  -0.325600 -1.250327e+01 -7.009831e+00  5.752024e+00  # O CO2
    155      52    2   0.651200 -1.250427e+01 -5.991492e+00  6.284176e+00  # C CO2
    156      52    1  -0.325600 -1.250527e+01 -4.973153e+00  6.816327e+00  # O CO2
    157      53    1  -0.325600 -8.545571e+00  1.037866e+01  8.774665e+00  # O CO2
    158      53    2   0.651200 -8.431217e+00  9.461425e+00  8.092170e+00  # C CO2
    159      53    1  -0.325600 -8.316862e+00  8.544188e+00  7.409675e+00  # O CO2
    160      54    1  -0.325600 -5.472799e+00  1.470247e+00  8.571580e+00  # O CO2
    161      54    2   0.651200 -5.020539e+00  1.815426e+00  7.573325e+00  # C CO2
    162      54    1  -0.325600 -4.568278e+00  2.160606e+00  6.575070e+00  # O CO2
    163      55    1  -0.325600 -1.250724e+01 -8.216538e+00 -1.283511e+00  # O CO2
    164      55    2   0.651200 -1.188345e+01 -7.841001e+00 -2.172366e+00  # C CO2
    165      55    1  -0.325600 -1.125967e+01 -7.465463e+00 -3.061220e+00  # O CO2
    166      56    1  -0.325600  1.744833e+00  1.116503e+01  2.124060e-01  # O CO2
    167      56    2   0.651200  2.613931e+00  1.183828e+01  5.464800e-01  # C CO2
    168      56    1  -0.325600  3.483029e+00  1.251153e+01  8.805550e-01  # O CO2
    169      57    1  -0.325600  7.298120e+00 -5.123890e+00  1.008571e+01  # O CO2
    170      57    2   0.651200  6.482917e+00 -5.669119e+00  9.487065e+00  # C CO2
    171      57    1  -0.325600  5.667715e+00 -6.214347e+00  8.888423e+00  # O CO2
    172      58    1  -0.325600 -1.160011e+01  1.945705e+00 -4.719272e+00  # O CO2
    173      58    2   0.651200 -1.108003e+01  2.577689e+00 -3.912854e+00  # C CO2
    174      58    1  -0.325600 -1.055995e+01  3.209674e+00 -3.106435e+00  # O CO2
    175      59    1  -0.325600 -7.377766e+00  1.252213e+01  4.006781e+00  # O CO2
    176      59    2   0.651200 -6.235008e+00  1.252546e+01  4.126331e+00  # C CO2
    177      59    1  -0.325600 -5.092249e+00  1.252879e+01  4.245880e+00  # O CO2
    178      60    1  -0.325600 -1.253004e+01 -1.225254e+00 -6.392330e+00  # O CO2
    179      60    2   0.651200 -1.211199e+01 -2.295171e+00 -6.419121e+00  # C CO2
    180      60    1  -0.325600 -1.169395e+01 -3.365087e+00 -6.445913e+00  # O CO2
    181      61    1  -0.325600  6.545170e+00  9.473734e+00  3.164690e-01  # O CO2
    182      61    2   0.651200  5.649402e+00  1.001966e+01 -1.523230e-01  # C CO2
    183      61    1  -0.325600  4.753634e+00  1.056559e+01 -6.211140e-01  # O CO2
    184      62    1  -0.325600 -4.715380e+00 -9.744548e+00 -1.240911e+01  # O CO2
    185      62    2   0.651200 -5.860409e+00 -9.735448e+00 -1.250412e+01  # C CO2
    186      62    1  -0.325600 -7.005439e+00 -9.726347e+00 -1.259912e+01  # O CO2
    187      63    1  -0.325600 -3.480013e+00  2.661742e+00  1.217250e+01  # O CO2
    188      63    2   0.651200 -4.212711e+00  3.527842e+00  1.235479e+01  # C CO2
    189      63    1  -0.325600 -4.945409e+00  4.393941e+00  1.253707e+01  # O CO2
    190      64    1  -0.325600 -2.803651e+00  3.755014e+00 -9.700199e+00  # O CO2
    191      64    2   0.651200 -1.900415e+00  4.205130e+00 -9.150870e+00  # C CO2
    192      64    1  -0.325600 -9.971790e-01  4.655245e+00 -8.601541e+00  # O CO2
    193      65    1  -0.325600  1.875322e+00  3.436760e-01 -2.472194e+00  # O CO2
    194      65    2   0.651200  7.360850e-01  4.733130e-01 -2.546577e+00  # C CO2
    195      65    1  -0.325600 -4.031530e-01  6.029500e-01 -2.620960e+00  # O CO2
    196      66    1  -0.325600 -1.218797e+01 -4.444276e+00 -3.965506e+00  # O CO2
    197      66    2   0.651200 -1.109986e+01 -4.756871e+00 -3.769280e+00  # C CO2
    198      66    1  -0.325600 -1.001176e+01 -5.069466e+00 -3.573053e+00  # O CO2
    199      67    1  -0.325600 -3.231886e+00  5.479040e-01  4.792132e+00  # O CO2
    200      67    2   0.651200 -2.180755e+00  1.413370e-01  4.568459e+00  # C CO2
    201      67    1  -0.325600 -1.129625e+00 -2.652300e-01  4.344786e+00  # O CO2
    202      68    1  -0.325600 -3.438501e+00  2.175065e+00  2.320365e+00  # O CO2
    203      68    2   0.651200 -3.688231e+00  2.786016e+00  3.260883e+00  # C CO2
    204      68    1  -0.325600 -3.937960e+00  3.396968e+00  4.201401e+00  # O CO2
    205      69    1  -0.325600  1.231197e+01  1.250000e+01  9.535483e+00  # O CO2
    206      69    2   0.651200  1.240598e+01  1.143744e+01  9.962476e+00  # C CO2
    207      69    1  -0.325600  1.250000e+01  1.037487e+01  1.038947e+01  # O CO2
    208      70    1  -0.325600  1.156718e+01 -1.249980e+01  4.222210e-01  # O CO2
    209      70    2   0.651200  1.045655e+01 -1.250195e+01  7.166670e-01  # C CO2
    210      70    1  -0.325600  9.345916e+00 -1.250409e+01  1.011113e+00  # O CO2
    211      71    1  -0.325600  2.293022e+00 -4.783459e+00  4.458683e+00  # O CO2
    212      71    2   0.651200  2.860912e+00 -3.853337e+00  4.094575e+00  # C CO2
    213      71    1  -0.325600  3.428802e+00 -2.923214e+00  3.730466e+00  # O CO2
    214      72    1  -0.325600  8.934277e+00  1.250855e+01 -1.172110e-01  # O CO2
    215      72    2   0.651200  7.840414e+00  1.248010e+01 -4.677180e-01  # C CO2
    216      72    1  -0.325600  6.746551e+00  1.245165e+01 -8.182260e-01  # O CO2
    217      73    1  -0.325600  1.069476e+01  1.290627e+00 -3.815990e+00  # O CO2
    218      73    2   0.651200  1.159819e+01  9.079610e-01 -3.218004e+00  # C CO2
    219      73    1  -0.325600  1.250161e+01  5.252960e-01 -2.620018e+00  # O CO2
    220      74    1  -0.325600 -4.506216e+00  5.198153e+00  1.947472e+00  # O CO2
    221      74    2   0.651200 -5.458230e+00  4.649450e+00  2.283320e+00  # C CO2
    222      74    1  -0.325600 -6.410245e+00  4.100746e+00  2.619168e+00  # O CO2
    223      75    1  -0.325600 -7.293444e+00 -3.466066e+00  4.754833e+00  # O CO2
    224      75    2   0.651200 -6.333183e+00 -3.657501e+00  4.153624e+00  # C CO2
    225      75    1  -0.325600 -5.372922e+00 -3.848936e+00  3.552415e+00  # O CO2
    226      76    1  -0.325600  7.750065e+00  8.249970e+00  1.248867e+01  # O CO2
    227      76    2   0.651200  6.997828e+00  7.381657e+00  1.250797e+01  # C CO2
    228      76    1  -0.325600  6.245591e+00  6.513343e+00  1.252726e+01  # O CO2
    229      77    1  -0.325600  9.935940e-01 -5.501937e+00 -1.053944e+01  # O CO2
    230      77    2   0.651200  1.819798e+00 -6.146585e+00 -1.006825e+01  # C CO2
    231      77    1  -0.325600  2.646002e+00 -6.791233e+00 -9.597064e+00  # O CO2
    232      78    1  -0.325600  3.433558e+00  1.909479e+00  2.514908e+00  # O CO2
    233      78    2   0.651200  4.382386e+00  1.897496e+00  3.162814e+00  # C CO2
    234      78    1  -0.325600  5.331214e+00  1.885512e+00  3.810720e+00  # O CO2
    235      79    1  -0.325600 -1.395705e+00  4.605116e+00  1.201554e+01  # O CO2
    236      79    2   0.651200 -1.395063e+00  5.149119e+00  1.100349e+01  # C CO2
    237      79    1  -0.325600 -1.394421e+00  5.693122e+00  9.991429e+00  # O CO2
    238      80    1  -0.325600 -1.155442e+01 -3.185476e+00 -1.098737e+00  # O CO2
    239      80    2   0.651200 -1.201303e+01 -4.230843e+00 -1.229468e+00  # C CO2
    240      80    1  -0.325600 -1.247163e+01 -5.276210e+00 -1.360198e+00  # O CO2
    241      81    1  -0.325600  9.399866e+00 -6.353510e-01 -9.501759e+00  # O CO2
    242      81    2   0.651200  8.826923e+00  1.824340e-01 -1.007024e+01  # C CO2
    243      81    1  -0.325600  8.253980e+00  1.000219e+00 -1.063871e+01  # O CO2
    244      82    1  -0.325600 -8.656647e+00 -7.603897e+00 -7.714508e+00  # O CO2
    245      82    2   0.651200 -8.508857e+00 -8.712900e+00 -7.452837e+00  # C CO2
    246      82    1  -0.325600 -8.361067e+00 -9.821903e+00 -7.191167e+00  # O CO2
    247      83    1  -0.325600 -4.526083e+00 -3.260264e+00 -1.250684e+01  # O CO2
    248      83    2   0.651200 -3.802553e+00 -3.450886e+00 -1.163485e+01  # C CO2
    249      83    1  -0.325600 -3.079023e+00 -3.641508e+00 -1.076286e+01  # O CO2
    250      84    1  -0.325600  9.714574e+00  1.250460e+01  5.956513e+00  # O CO2
    251      84    2   0.651200  1.022710e+01  1.189584e+01  6.785326e+00  # C CO2
    252      84    1  -0.325600  1.073962e+01  1.128708e+01  7.614139e+00  # O CO2
    253      85    1  -0.325600 -1.250803e+01 -9.299438e+00 -8.873918e+00  # O CO2
    254      85    2   0.651200 -1.168252e+01 -8.537188e+00 -9.114152e+00  # C CO2
    255      85    1  -0.325600 -1.085702e+01 -7.774938e+00 -9.354386e+00  # O CO2
    256      86    1  -0.325600  6.328179e+00 -9.036841e+00  1.245458e+01  # O CO2
    257      86    2   0.651200  7.476394e+00 -9.058794e+00  1.249095e+01  # C CO2
    258      86    1  -0.325600  8.624608e+00 -9.080747e+00  1.252732e+01  # O CO2
    259      87    1  -0.325600  1.029301e+01 -3.383283e+00 -7.278692e+00  # O CO2
    260      87    2   0.651200  1.093284e+01 -2.550479e+00 -7.744805e+00  # C CO2
    261      87    1  -0.325600  1.157266e+01 -1.717676e+00 -8.210919e+00  # O CO2
    262      88    1  -0.325600 -1.348150e-01  9.417483e+00  1.251761e+01  # O CO2
    263      88    2   0.651200  9.091800e-02  1.001083e+01  1.155991e+01  # C CO2
    264      88    1  -0.325600  3.166500e-01  1.060418e+01  1.060222e+01  # O CO2
    265      89    1  -0.325600 -7.699371e+00  1.128582e+01  1.572958e+00  # O CO2
    266      89    2   0.651200 -7.558610e+00  1.026051e+01  1.073845e+00  # C CO2
    267      89    1  -0.325600 -7.417849e+00  9.235189e+00  5.747320e-01  # O CO2
    268      90    1  -0.325600 -8.422115e+00  2.169086e+00 -4.487785e+00  # O CO2
    269      90    2   0.651200 -8.616231e+00  1.356856e+00 -3.698606e+00  # C CO2
    270      90    1  -0.325600 -8.810346e+00  5.446270e-01 -2.909428e+00  # O CO2
    271      91    1  -0.325600  3.163845e+00 -7.254731e+00 -3.684324e+00  # O CO2
    272      91    2   0.651200  2.524144e+00 -8.072088e+00 -4.177183e+00  # C CO2
    273      91    1  -0.325600  1.884442e+00 -8.889446e+00 -4.670042e+00  # O CO2
    274      92    1  -0.325600  2.764998e+00  1.254986e+01  1.169264e+01  # O CO2
    275      92    2   0.651200  1.698945e+00  1.253427e+01  1.212100e+01  # C CO2
    276      92    1  -0.325600  6.328920e-01  1.251868e+01  1.254936e+01  # O CO2
    277      93    1  -0.325600  9.955072e+00 -3.702709e+00 -3.749915e+00  # O CO2
    278      93    2   0.651200  1.016022e+01 -2.575317e+00 -3.834199e+00  # C CO2
    279      93    1  -0.325600  1.036536e+01 -1.447925e+00 -3.918482e+00  # O CO2
    280      94    1  -0.325600  9.216301e+00 -1.100330e+01 -6.557624e+00  # O CO2
    281      94    2   0.651200  9.392149e+00 -9.874715e+00 -6.432851e+00  # C CO2
    282      94    1  -0.325600  9.567997e+00 -8.746127e+00 -6.308078e+00  # O CO2
    283      95    1  -0.325600 -5.644093e+00  1.213732e+00 -5.390088e+00  # O CO2
    284      95    2   0.651200 -6.509444e+00  4.639180e-01 -5.485722e+00  # C CO2
    285      95    1  -0.325600 -7.374796e+00 -2.858970e-01 -5.581355e+00  # O CO2
    286      96    1  -0.325600  1.251075e+01 -6.970706e+00  1.305290e+00  # O CO2
    287      96    2   0.651200  1.250622e+01 -5.823235e+00  1.364374e+00  # C CO2
    288      96    1  -0.325600  1.250169e+01 -4.675764e+00  1.423459e+00  # O CO2
    289      97    1  -0.325600  5.237348e+00 -1.262897e+00  7.589229e+00  # O CO2
    290      97    2   0.651200  4.274622e+00 -1.780012e+00  7.234331e+00  # C CO2
    291      97    1  -0.325600  3.311896e+00 -2.297126e+00  6.879433e+00  # O CO2
    292      98    1  -0.325600  4.004030e-01  7.521368e+00  4.279069e+00  # O CO2
    293      98    2   0.651200  1.023395e+00  7.421244e+00  5.239307e+00  # C CO2
    294      98    1  -0.325600  1.646387e+00  7.321119e+00  6.199545e+00  # O CO2
    295      99    1  -0.325600 -7.151527e+00  4.381529e+00 -3.462608e+00  # O CO2
    296      99    2   0.651200 -6.473336e+00  5.166061e+00 -2.967868e+00  # C CO2
    297      99    1  -0.325600 -5.795145e+00  5.950593e+00 -2.473127e+00  # O CO2
    298     100    1  -0.325600 -8.248837e+00 -5.773471e+00  9.124807e+00  # O CO2
    299     100    2   0.651200 -9.028325e+00 -6.376902e+00  9.715121e+00  # C CO2
    300     100    1  -0.325600 -9.807814e+00 -6.980333e+00  1.030543e+01  # O CO2
    301     101    1  -0.325600 -1.225262e+01  6.357008e+00 -8.061221e+00  # O CO2
    302     101    2   0.651200 -1.134446e+01  6.600039e+00 -7.400626e+00  # C CO2
    303     101    1  -0.325600 -1.043630e+01  6.843069e+00 -6.740032e+00  # O CO2
    304     102    1  -0.325600  7.947195e+00  5.033552e+00 -6.509139e+00  # O CO2
    305     102    2   0.651200  7.014126e+00  4.556343e+00 -6.980154e+00  # C CO2
    306     102    1  -0.325600  6.081057e+00  4.079134e+00 -7.451168e+00  # O CO2
    307     103    1  -0.325600  5.101288e+00  5.459029e+00  7.037912e+00  # O CO2
    308     103    2   0.651200  5.739535e+00  4.643632e+00  6.539947e+00  # C CO2
    309     103    1  -0.325600  6.377783e+00  3.828235e+00  6.041983e+00  # O CO2
    310     104    1  -0.325600 -6.403909e+00  1.356072e+00  2.787075e+00  # O CO2
    311     104    2   0.651200 -5.650904e+00  4.883020e-01  2.799725e+00  # C CO2
    312     104    1  -0.325600 -4.897900e+00 -3.794680e-01  2.812374e+00  # O CO2
    313     105    1  -0.325600  7.336220e+00 -8.050254e+00  7.140808e+00  # O CO2
    314     105    2   0.651200  8.090841e+00 -8.889302e+00  7.357016e+00  # C CO2
    315     105    1  -0.325600  8.845462e+00 -9.728350e+00  7.573224e+00  # O CO2
    316     106    1  -0.325600  9.466312e+00  6.851154e+00 -1.017277e+01  # O CO2
    317     106    2   0.651200  1.054098e+01  6.984913e+00 -1.055671e+01  # C CO2
    318     106    1  -0.325600  1.161564e+01  7.118673e+00 -1.094064e+01  # O CO2
    319     107    1  -0.325600  5.135786e+00  9.175680e+00  3.078796e+00  # O CO2
    320     107    2   0.651200  6.230034e+00  8.841475e+00  2.973293e+00  # C CO2
    321     107    1  -0.325600  7.324281e+00  8.507270e+00  2.867790e+00  # O CO2
    322     108    1  -0.325600 -9.648922e+00 -1.251898e+01 -3.936376e+00  # O CO2
    323     108    2   0.651200 -9.890805e+00 -1.162445e+01 -4.615725e+00  # C CO2
    324     108    1  -0.325600 -1.013269e+01 -1.072993e+01 -5.295074e+00  # O CO2
    325     109    1  -0.325600  6.908348e+00  1.250250e+01 -7.710503e+00  # O CO2
    326     109    2   0.651200  7.642676e+00  1.187569e+01 -8.333461e+00  # C CO2
    327     109    1  -0.325600  8.377003e+00  1.124888e+01 -8.956419e+00  # O CO2
    328     110    1  -0.325600  4.216310e+00  7.324108e+00  5.221308e+00  # O CO2
    329     110    2   0.651200  3.593486e+00  7.230070e+00  4.260346e+00  # C CO2
    330     110    1  -0.325600  2.970662e+00  7.136032e+00  3.299384e+00  # O CO2
    331     111    1  -0.325600 -5.334437e+00 -1.127535e+01 -3.093571e+00  # O CO2
    332     111    2   0.651200 -4.515396e+00 -1.189035e+01 -3.614293e+00  # C CO2
    333     111    1  -0.325600 -3.696356e+00 -1.250535e+01 -4.135015e+00  # O CO2
    334     112    1  -0.325600 -5.127077e+00  1.249994e+01  1.494423e+00  # O CO2
    335     112    2   0.651200 -4.000963e+00  1.249792e+01  1.722602e+00  # C CO2
    336     112    1  -0.325600 -2.874850e+00  1.249589e+01  1.950780e+00  # O CO2
    337     113    1  -0.325600  1.280449e+00 -2.792861e+00 -7.369959e+00  # O CO2
    338     113    2   0.651200  1.716851e+00 -1.750267e+00 -7.576722e+00  # C CO2
    339     113    1  -0.325600  2.153253e+00 -7.076720e-01 -7.783485e+00  # O CO2
    340     114    1  -0.325600  4.582073e+00 -5.951768e+00  1.239366e+01  # O CO2
    341     114    2   0.651200  3.479104e+00 -5.634871e+00  1.245055e+01  # C CO2
    342     114    1  -0.325600  2.376135e+00 -5.317974e+00  1.250745e+01  # O CO2
    343     115    1  -0.325600  2.087990e-01  5.480049e+00 -8.679710e-01  # O CO2
    344     115    2   0.651200  6.651610e-01  4.617483e+00 -2.614130e-01  # C CO2
    345     115    1  -0.325600  1.121524e+00  3.754916e+00  3.451450e-01  # O CO2
    346     116    1  -0.325600  1.250731e+01 -8.082521e+00  7.948282e+00  # O CO2
    347     116    2   0.651200  1.250605e+01 -9.055062e+00  8.560134e+00  # C CO2
    348     116    1  -0.325600  1.250479e+01 -1.002760e+01  9.171985e+00  # O CO2
    349     117    1  -0.325600  7.021775e+00  3.770630e-01 -7.626657e+00  # O CO2
    350     117    2   0.651200  7.544006e+00  1.357057e+00 -7.921766e+00  # C CO2
    351     117    1  -0.325600  8.066238e+00  2.337050e+00 -8.216874e+00  # O CO2
    352     118    1  -0.325600  1.174141e+01 -6.523086e+00  1.007943e+01  # O CO2
    353     118    2   0.651200  1.175516e+01 -5.715178e+00  9.262550e+00  # C CO2
    354     118    1  -0.325600  1.176892e+01 -4.907270e+00  8.445668e+00  # O CO2
    355     119    1  -0.325600  9.771325e+00  1.167025e+00  6.063148e+00  # O CO2
    356     119    2   0.651200  9.427717e+00  6.377450e-01  7.023355e+00  # C CO2
    357     119    1  -0.325600  9.084110e+00  1.084650e-01  7.983562e+00  # O CO2