ITEM: TIMESTEP
9100000
ITEM: NUMBER OF ATOMS
1500
ITEM: BOX BOUNDS pp pp pp
-1.7672977116870069e+01 1.7672977116870069e+01
-1.7672977116870069e+01 1.7672977116870069e+01
-1.7672977116870069e+01 1.7672977116870069e+01
ITEM: ATOMS id type xs ys zs
868 1 0.0269697 0.00039723 0.165408
590 2 0.267231 0.0484062 0.147036
589 1 0.264406 0.0304559 0.17399
441 1 0.127183 0.484263 0.0311367
1225 1 0.0736027 0.294421 0.0725537
732 1 0.206621 0.128699 0.0747531
1433 2 0.295922 0.22534 0.14084
1469 2 0.0306199 0.0643241 0.0466574
730 1 0.2109 0.122798 0.13935
1356 1 0.00464435 0.067019 0.2292
588 1 0.219358 0.330943 0.211133
731 2 0.208859 0.125284 0.107003
1432 1 0.303868 0.225852 0.172357
1447 1 0.210778 0.447233 0.184753
870 1 0.0678458 0.0413786 0.135865
638 2 0.272394 0.452583 0.0338469
591 1 0.268923 0.0669813 0.120412
733 1 0.0896671 0.200582 0.0616854
775 1 0.271997 0.162304 0.0422011
924 1 0.0628309 0.352623 0.226075
1449 1 0.216304 0.48725 0.133843
1434 1 0.286114 0.226284 0.109862
821 2 0.17049 0.40833 0.00826201
869 2 0.047817 0.0210881 0.15148
776 2 0.263443 0.152412 0.0124407
1294 1 -0.00165533 0.427934 0.10078
735 1 0.0448917 0.201865 0.0146304
734 2 0.0670864 0.202433 0.0383746
1348 1 0.0904441 0.129465 0.00398737
153 1 0.101493 0.458288 0.196954
151 1 0.11423 0.431977 0.138994
1448 2 0.213902 0.467864 0.159826
152 2 0.107625 0.443486 0.168669
923 2 0.0347466 0.356981 0.210296
1470 1 0.0278085 0.0954152 0.0557208
587 2 0.22245 0.352573 0.235201
1227 1 0.120842 0.328868 0.100937
822 1 0.148585 0.387611 0.0204126
637 1 0.252896 0.463707 0.0573582
1468 1 0.0347796 0.0327198 0.040287
1226 2 0.0977398 0.311509 0.0860487
922 1 0.00671126 0.36129 0.194416
639 1 0.290463 0.442621 0.00872719
834 1 0.119046 0.2882 -0.0105158
440 2 0.129344 0.491374 -0.000509334
1418 2 0.125473 0.16683 0.336486
297 1 0.237861 0.0316021 0.29213
1109 2 0.104975 0.243602 0.464289
1202 2 0.155463 0.0674847 0.482266
1347 1 0.000268487 0.498851 0.353572
1419 1 0.114884 0.18921 0.35755
1201 1 0.179576 0.0481112 0.492263
1203 1 0.131315 0.0872261 0.473107
1101 1 0.0766213 0.0526207 0.408707
1100 2 0.0748228 0.0845685 0.402979
1099 1 0.0736193 0.116007 0.394801
1417 1 0.135237 0.1455 0.313983
1437 1 0.150572 0.00672222 0.34086
1110 1 0.0727274 0.244518 0.468283
296 2 0.208057 0.0419377 0.284279
813 1 0.284258 0.0420866 0.400878
957 1 0.190525 0.166215 0.491683
971 2 0.0278836 0.326611 0.382583
295 1 0.178713 0.0533089 0.276135
970 1 0.0259226 0.354358 0.399405
972 1 0.0356192 0.299357 0.366644
812 2 0.279385 0.0600959 0.427499
956 2 0.195477 0.149939 0.463983
1108 1 0.136982 0.239252 0.460637
113 2 0.313132 0.293288 0.310305
114 1 0.306365 0.29919 0.279062
1091 2 0.204482 0.49729 0.327871
1028 2 0.0556606 0.38075 0.485403
1472 2 0.170393 0.285398 0.380553
1250 2 0.0581345 0.150805 0.475055
1318 1 0.275222 0.441088 0.447357
1092 1 0.185822 0.484401 0.304582
1320 1 0.21949 0.447742 0.414549
1144 1 0.0940898 0.442493 0.379026
1473 1 0.202661 0.286389 0.376747
112 1 0.321098 0.289273 0.341564
396 1 0.156575 0.379948 0.484119
1146 1 0.14625 0.404015 0.383835
1145 2 0.119981 0.423091 0.382171
395 2 0.164952 0.357022 0.46265
1471 1 0.138471 0.286741 0.386546
284 2 0.004921 0.0221896 0.503463
1249 1 0.0272145 0.140773 0.474944
1125 1 0.0280363 0.196525 0.305736
1124 2 0.0174309 0.196127 0.336462
955 1 0.201783 0.135064 0.435775
586 1 0.224314 0.375698 0.257971
1029 1 0.0421548 0.410303 0.484435
1123 1 0.00673151 0.195809 0.367156
811 1 0.275821 0.0792174 0.453544
1167 1 0.0297387 0.282329 0.259451
1319 2 0.247429 0.444569 0.43086
1364 2 0.297099 0.477224 0.323267
1027 1 0.0709636 0.352086 0.486347
394 1 0.172667 0.332839 0.442343
1363 1 0.290055 0.461465 0.295722
1251 1 0.089518 0.159252 0.474391
1166 2 0.00700045 0.261198 0.249798
43 1 0.138455 0.491077 0.427948
1365 1 0.305249 0.493466 0.35022
327 1 0.066643 0.0923726 0.658892
325 1 0.0727295 0.154874 0.642234
326 2 0.0707377 0.123678 0.651152
479 2 0.144852 0.404235 0.73312
368 2 0.280045 0.258517 0.505086
236 2 0.129981 0.166937 0.577548
415 1 0.0060719 0.23867 0.671421
662 2 0.188378 0.00775452 0.590505
750 1 0.217619 0.101163 0.547421
749 2 0.22236 0.107463 0.578957
914 2 0.190267 0.162252 0.731923
26 2 0.323148 0.474594 0.57923
913 1 0.164572 0.159593 0.71219
188 2 0.222707 0.0567105 0.730207
748 1 0.226789 0.112979 0.610685
1416 1 0.0768282 0.292686 0.55418
25 1 0.302201 0.462192 0.557686
712 1 0.304258 0.480648 0.731306
283 1 0.0255772 0.0182715 0.528255
1206 1 0.0940086 0.0288124 0.590107
799 1 0.0446573 0.155992 0.730057
995 2 0.315625 0.0402212 0.569519
1205 2 0.0802447 0.0566912 0.580618
593 2 0.192906 0.486439 0.720064
661 1 0.190738 0.0222338 0.619513
1204 1 0.0671498 0.0852977 0.572439
416 2 0.0381554 0.243833 0.672262
235 1 0.152264 0.146064 0.588706
369 1 0.262992 0.230961 0.507642
994 1 0.28484 0.03145 0.575184
189 1 0.234545 0.0798751 0.710714
367 1 0.295392 0.287014 0.502067
237 1 0.105498 0.187342 0.571155
455 2 0.326655 0.13799 0.748303
723 1 0.254217 0.262227 0.724628
945 1 -0.013645 0.0612455 0.719663
417 1 0.0703618 0.247893 0.673989
763 1 0.128348 0.470885 0.590902
150 1 0.0767565 0.45578 0.67464
78 1 0.271271 0.204401 0.638908
77 2 0.249787 0.218853 0.619255
140 2 0.26025 0.359222 0.668607
1314 1 0.123301 -0.00414395 0.680866
592 1 0.216173 0.475939 0.699937
1066 1 0.283892 0.324793 0.583549
959 2 0.189741 0.306262 0.551584
149 2 0.0559739 0.449288 0.698779
139 1 0.237158 0.36875 0.647807
1414 1 0.0229944 0.267218 0.52832
958 1 0.182721 0.294161 0.522241
710 2 0.126961 0.272158 0.727526
1119 1 0.0686617 0.370164 0.685948
765 1 0.109308 0.417868 0.558503
960 1 0.19663 0.319829 0.58031
764 2 0.11818 0.444905 0.574219
1488 1 0.219359 0.43161 0.581004
1487 2 0.243607 0.433657 0.602558
273 1 0.167033 0.335009 0.670333
1486 1 0.268381 0.435362 0.623535
148 1 0.0343215 0.442406 0.722028
271 1 0.139049 0.379407 0.632042
1456 1 0.306752 0.0127255 0.667261
141 1 0.283581 0.349986 0.689273
272 2 0.151928 0.356642 0.651345
76 1 0.227274 0.232532 0.600209
1312 1 0.0979506 0.0361438 0.725062
711 1 0.112217 0.300382 0.720988
1415 2 0.0506288 0.279987 0.539722
1067 2 0.312398 0.339534 0.578372
709 1 0.1425 0.244859 0.735896
480 1 0.175258 0.399206 0.72278
1118 2 0.0462759 0.347082 0.690728
1313 2 0.109465 0.015218 0.703011
1117 1 0.0242937 0.323251 0.693082
594 1 0.1679 0.494609 0.73916
454 1 0.32914 0.105765 0.751775
478 1 0.113697 0.410324 0.740122
122 2 0.245239 0.489628 0.943379
892 1 0.149157 0.195352 0.800679
1078 1 0.0666383 0.0583669 0.89907
318 1 0.168896 0.0628781 0.882591
1037 2 0.214349 0.147844 0.908642
317 2 0.187594 0.0457855 0.862222
832 1 0.166492 0.327515 0.968838
1349 2 0.109903 0.113124 0.983713
1036 1 0.241179 0.133414 0.897301
1080 1 0.0728024 0.122617 0.891793
390 1 0.157407 0.00316576 0.944795
91 1 0.0797365 0.235059 0.930576
1038 1 0.187225 0.162699 0.91866
1079 2 0.0699909 0.0906203 0.896792
1106 2 0.294041 0.103539 0.828636
1105 1 0.267057 0.0927958 0.814036
264 1 0.0496702 0.229283 0.770221
1039 1 0.258085 0.0461508 0.970755
47 2 0.233302 0.213088 0.847445
316 1 0.207359 0.0299729 0.841825
713 2 0.314656 0.488718 0.761029
121 1 0.235845 0.471301 0.918228
48 1 0.221006 0.235391 0.867647
1107 1 0.321131 0.112088 0.84444
490 1 0.183288 0.357795 0.899472
238 1 0.150318 0.192937 0.995187
388 1 0.0983454 0.0194463 0.966519
721 1 0.223388 0.26055 0.781844
833 2 0.142959 0.308112 0.980081
187 1 0.208014 0.0352463 0.749703
893 2 0.13256 0.21934 0.815026
46 1 0.244696 0.19024 0.827324
262 1 0.021169 0.283223 0.792468
263 2 0.034086 0.255433 0.781624
1040 2 0.228539 0.0530975 0.982395
894 1 0.119196 0.244389 0.830859
240 1 0.175504 0.241912 0.960684
1041 1 0.198545 0.0612602 0.991904
66 1 0.256041 0.239205 1.00245
239 2 0.163105 0.21683 0.977233
202 1 0.0311361 0.406358 0.959473
722 2 0.238761 0.26137 0.753213
777 1 0.254772 0.140827 0.983332
801 1 0.0847966 0.137663 0.777594
65 2 0.269464 0.268741 1.00041
1350 1 0.128573 0.0952866 0.963965
904 1 0.0756941 0.406409 0.881677
64 1 0.282381 0.29857 1.00004
162 1 0.0160114 0.418993 0.831918
906 1 0.0917835 0.349893 0.90947
1390 1 0.189097 0.433241 0.826699
93 1 0.0437453 0.236655 0.876462
905 2 0.0843096 0.378206 0.895355
92 2 0.0615569 0.235551 0.903632
1391 2 0.172814 0.447633 0.850874
492 1 0.241908 0.331748 0.888974
161 2 -0.00170822 0.40368 0.854461
491 2 0.212619 0.344553 0.894882
1392 1 0.158379 0.462219 0.876085
1491 1 0.325857 0.447252 0.910857
379 1 -0.00567911 0.17821 0.930153
389 2 0.127609 0.0109056 0.955232
820 1 0.194013 0.427924 0.997333
915 1 0.215644 0.164195 0.752146
800 2 0.0659708 0.148651 0.753478
349 1 0.0134442 0.643081 0.0961301
1231 1 0.330441 0.778739 0.242615
611 2 0.264129 0.733927 0.0196284
1269 1 0.218826 0.642145 0.0903417
7 1 0.265123 0.971802 0.0495726
1185 1 0.17626 0.739398 0.0114745
927 1 0.0818277 0.715944 0.236626
1267 1 0.158661 0.660334 0.0739492
322 1 0.209655 0.594388 0.0225911
926 2 0.0613515 0.694971 0.222569
1412 2 0.103875 0.580315 0.0676776
1268 2 0.188302 0.6509 0.0833913
1411 1 0.103398 0.585002 0.0355137
1413 1 0.105185 0.576522 0.0999361
169 1 0.314414 0.967833 0.177474
627 1 0.310406 0.636305 0.14419
626 2 0.301512 0.659197 0.122892
625 1 0.292231 0.682758 0.10251
911 2 0.154776 0.959094 0.103608
912 1 0.143305 0.929231 0.0978334
97 1 0.248694 0.565551 0.180902
444 1 0.264366 0.897641 0.135618
1008 1 0.147847 0.883438 0.209138
885 1 0.141847 0.778428 0.239714
9 1 0.319931 0.936889 0.0514497
852 1 0.0202274 0.78402 0.0121634
621 1 0.250746 0.860105 0.0121072
98 2 0.220036 0.574222 0.168245
106 1 0.016807 0.739755 0.158493
107 2 0.0215088 0.771821 0.161018
108 1 0.0253592 0.804013 0.163376
443 2 0.248014 0.878694 0.156363
442 1 0.233058 0.86088 0.179071
1006 1 0.180596 0.938771 0.218181
1007 2 0.165509 0.910472 0.212864
986 2 0.0676771 0.899965 0.233488
8 2 0.292692 0.954613 0.0506585
1184 2 0.151508 0.738726 0.0325369
99 1 0.191938 0.583534 0.154809
987 1 0.0866928 0.923732 0.244899
1183 1 0.129226 0.739348 0.0561978
1024 1 0.120225 0.601784 0.232306
925 1 0.0409523 0.673969 0.208444
620 2 0.279639 0.846735 0.00553683
509 2 0.306903 0.892288 0.237305
351 1 0.0509353 0.693695 0.0801773
350 2 0.0327321 0.668292 0.0891232
1279 1 0.0426336 0.57133 0.206223
384 1 0.186494 0.656377 0.227533
1280 2 0.0319781 0.585527 0.233456
985 1 0.0489681 0.876248 0.221478
610 1 0.265072 0.750315 0.0476867
508 1 0.31413 0.875208 0.210608
910 1 0.166028 0.989254 0.108128
1025 2 0.140699 0.580423 0.245768
323 2 0.234909 0.603966 0.00450108
372 1 0.167612 0.788869 0.437054
871 1 0.0564223 0.957439 0.413304
45 1 0.0942584 0.513804 0.469815
1004 2 0.132046 0.675837 0.429271
622 1 0.00726141 0.833681 0.36659
1003 1 0.161558 0.666779 0.419089
1342 1 0.102318 0.986702 0.480733
278 2 0.272487 0.661427 0.459882
873 1 0.0340569 0.935512 0.356373
382 1 0.16802 0.678278 0.285873
1005 1 0.10177 0.682165 0.439274
465 1 0.0915726 0.565537 0.3672
275 2 0.0520423 0.763766 0.346316
277 1 0.25145 0.647541 0.439355
463 1 0.096349 0.627935 0.349743
274 1 0.0616234 0.750358 0.374336
105 1 0.258193 0.838807 0.291941
464 2 0.0937265 0.596435 0.357333
1334 2 0.065966 0.600007 0.48424
1435 1 0.0987863 0.972829 0.32101
1065 1 0.16544 0.611281 0.504002
104 2 0.235021 0.861019 0.286806
880 1 0.140218 0.884128 0.334857
1281 1 0.0218737 0.599443 0.261041
1026 1 0.159739 0.558746 0.260746
44 2 0.116377 0.501555 0.449384
1335 1 0.0713277 0.591362 0.453366
387 1 0.0835139 0.807472 0.480816
276 1 0.0411193 0.776095 0.318291
623 2 0.0182399 0.850395 0.392218
624 1 0.0306067 0.86582 0.418022
298 1 0.271433 0.749435 0.431469
884 2 0.127562 0.796419 0.262713
383 2 0.177398 0.666637 0.257007
103 1 0.209354 0.880033 0.280775
1090 1 0.223952 0.510336 0.350397
138 1 0.321551 0.871255 0.485781
969 1 0.157877 0.918717 0.407298
967 1 0.221493 0.924381 0.39517
792 1 0.218347 0.843098 0.382484
872 2 0.0445766 0.945793 0.385362
791 2 0.246339 0.844029 0.398985
1344 1 0.157988 0.9535 0.476068
300 1 0.326879 0.782554 0.438886
790 1 0.274499 0.844191 0.415223
881 2 0.128203 0.85819 0.350336
86 2 0.269044 0.965172 0.491141
968 2 0.18962 0.9219 0.401054
370 1 0.171418 0.756794 0.380642
1343 2 0.129871 0.96953 0.479093
882 1 0.11748 0.831998 0.366326
510 1 0.298353 0.908451 0.264182
1173 1 0.310127 0.658749 0.343067
371 2 0.1696 0.772349 0.409129
1436 2 0.124714 0.990116 0.330263
299 2 0.298986 0.766209 0.435489
87 1 0.289475 0.990124 0.495222
385 1 0.119608 0.859029 0.464618
883 1 0.11236 0.814852 0.284755
1172 2 0.308573 0.690303 0.350723
1171 1 0.307678 0.721818 0.358645
85 1 0.246557 0.941822 0.48872
386 2 0.102137 0.83269 0.472217
279 1 0.291983 0.675985 0.481438
849 1 0.248809 0.562829 0.498675
698 2 0.128061 0.536564 0.653897
1049 2 0.0240092 0.617729 0.679204
697 1 0.160182 0.537813 0.649058
1212 1 0.00537388 0.516498 0.543426
1163 2 0.276864 0.686298 0.58898
1164 1 0.286288 0.716073 0.57996
1190 2 0.119715 0.668529 0.731493
1191 1 0.0978747 0.648533 0.744904
1189 1 0.141507 0.689712 0.719955
1341 1 0.0110286 0.751917 0.689503
1403 2 0.251426 0.5792 0.622922
597 1 0.0235945 0.973834 0.673468
1429 1 0.148074 0.713621 0.504
1485 1 0.255629 0.669212 0.690401
1484 2 0.255605 0.647379 0.714485
848 2 0.233867 0.534709 0.505211
699 1 0.0960028 0.537101 0.659254
703 1 0.110622 0.661533 0.582923
288 1 0.134977 0.798057 0.691449
705 1 0.117303 0.639914 0.643871
704 2 0.113867 0.650953 0.613489
595 1 0.00502449 0.997012 0.615723
1162 1 0.269165 0.656574 0.599655
1339 1 0.0202989 0.778723 0.747983
768 1 0.301945 0.790512 0.609954
596 2 0.013595 0.98403 0.644266
1402 1 0.249097 0.592344 0.652562
83 2 0.0909981 0.904604 0.613189
1048 1 0.0342325 0.642444 0.660727
1064 2 0.154703 0.585005 0.519845
1325 2 0.0320749 0.698924 0.543984
59 2 0.193632 0.861751 0.518116
1326 1 0.0385346 0.721204 0.521212
1211 2 0.0351951 0.526214 0.551969
1063 1 0.146126 0.558652 0.536836
1143 1 0.017732 0.895132 0.516218
1404 1 0.255304 0.567166 0.592975
1324 1 0.0239786 0.676818 0.5664
544 1 0.0482402 0.813488 0.563145
1210 1 0.064003 0.536318 0.563138
760 1 0.266077 0.91184 0.697187
182 2 0.118006 0.919767 0.730429
663 1 0.186078 0.993044 0.561608
1077 1 0.150794 0.720102 0.648075
545 2 0.0582178 0.805634 0.59307
181 1 0.119997 0.901584 0.703557
1142 2 -0.000106565 0.91171 0.537751
1430 2 0.176225 0.699376 0.511832
315 1 0.230324 0.781241 0.732638
1093 1 0.303653 0.920364 0.549454
1431 1 0.205128 0.685375 0.516862
58 1 0.175034 0.881604 0.535911
287 2 0.150323 0.812834 0.716002
313 1 0.274359 0.735526 0.746658
314 2 0.252019 0.758215 0.74011
766 1 0.274712 0.83067 0.566731
1340 2 0.0157302 0.764618 0.719054
546 1 0.070597 0.798568 0.622285
1050 1 0.0126591 0.592487 0.696254
1243 1 0.162935 0.812059 0.576167
1245 1 0.192367 0.84665 0.622657
1095 1 0.314493 0.905164 0.611721
1075 1 0.200927 0.760772 0.65578
346 1 0.169779 0.928987 0.632555
82 1 0.0976753 0.872839 0.611419
1076 2 0.175867 0.740458 0.651773
1094 2 0.309242 0.912295 0.580444
762 1 0.33057 0.916141 0.690252
761 2 0.298387 0.913692 0.694121
84 1 0.0848101 0.936507 0.61398
347 2 0.201301 0.932259 0.625318
1244 2 0.176931 0.82947 0.599782
767 2 0.287959 0.809775 0.587817
348 1 0.232712 0.935824 0.617744
789 1 0.0825569 0.515462 0.73939
1444 1 0.301164 0.838774 0.752223
286 1 0.164215 0.828752 0.740707
847 1 0.221135 0.505302 0.510675
1483 1 0.256394 0.626199 0.739133
690 1 0.274769 0.978313 0.741197
1333 1 0.0617006 0.610124 0.514837
60 1 0.214046 0.843775 0.500315
398 2 0.226137 0.55914 0.832742
1273 1 0.0731001 0.858545 0.80154
850 1 0.0302339 0.729756 0.977842
360 1 0.0977375 0.492629 0.832794
266 2 0.243142 0.707792 0.892271
1224 1 0.0462664 0.608786 0.873362
936 1 0.288513 0.798576 0.893692
787 1 0.0752062 0.562476 0.783612
359 2 0.078271 0.500506 0.857607
757 1 0.0923589 0.744018 0.83935
935 2 0.261335 0.811405 0.906081
603 1 0.323161 0.889873 0.928735
37 1 0.032355 0.956792 0.865626
267 1 0.237822 0.738868 0.88435
31 1 0.15042 0.615112 0.94907
612 1 0.263333 0.719802 0.990361
265 1 0.248396 0.676365 0.898707
32 2 0.119528 0.624144 0.953633
33 1 0.0887175 0.633792 0.957422
397 1 0.243058 0.533879 0.844243
1222 1 0.0951066 0.651365 0.868378
1223 2 0.0713118 0.629353 0.870827
439 1 0.134112 0.498642 0.968167
399 1 0.209775 0.584758 0.821223
851 2 0.0258307 0.756529 0.995745
38 2 0.039852 0.978449 0.842572
358 1 0.0592502 0.509717 0.882307
1446 1 0.326215 0.868982 0.804046
324 1 0.260851 0.613341 0.987302
714 1 0.325361 0.498514 0.790118
1274 2 0.0649231 0.841314 0.827864
837 1 0.134973 0.795358 0.975063
788 2 0.0800811 0.538722 0.761964
708 1 0.312271 0.774757 0.815196
1009 1 -0.000576417 0.52338 0.99847
1322 2 0.1355 0.896985 0.866629
934 1 0.234938 0.825008 0.919305
1422 1 -0.00367167 0.798774 0.919024
689 2 0.248536 0.965431 0.75543
670 1 0.255458 0.944594 0.963231
836 2 0.140373 0.826134 0.966094
39 1 0.0469015 0.999435 0.818768
123 1 0.253288 0.511084 0.966434
759 1 0.133079 0.733254 0.888874
505 1 0.171221 0.798773 0.827219
619 1 0.307729 0.831649 0.999206
672 1 0.280414 0.9612 0.905541
1321 1 0.10982 0.916523 0.870562
688 1 0.222963 0.952493 0.77077
1275 1 0.0558539 0.824211 0.853978
1445 2 0.31324 0.853786 0.778406
671 2 0.268043 0.953018 0.934467
758 2 0.112495 0.738552 0.864277
507 1 0.236114 0.802547 0.82789
1323 1 0.161516 0.878208 0.861402
506 2 0.203662 0.80084 0.827092
835 1 0.14551 0.857082 0.95758
183 1 0.117905 0.938684 0.756865
726 1 0.507451 0.176023 0.15577
725 2 0.484122 0.157498 0.168782
966 1 0.596224 0.174885 0.138803
281 2 0.606846 0.0464534 0.0974254
964 1 0.574417 0.115923 0.122739
965 2 0.583461 0.146182 0.130441
808 1 0.623803 0.0466652 0.201665
280 1 0.577348 0.0328623 0.098799
724 1 0.461081 0.138509 0.181638
809 2 0.597604 0.0609325 0.214578
1405 1 0.474364 -0.00928413 0.188706
404 2 0.351438 0.0550267 0.0709425
489 1 0.45717 0.15086 0.0316143
563 2 0.658402 0.25484 0.144283
517 1 0.553301 0.274713 0.136981
518 2 0.549582 0.2566 0.163717
519 1 0.546434 0.238568 0.190581
919 1 0.347774 0.0657075 0.201105
928 1 0.476482 0.0568506 0.110718
920 2 0.376526 0.0650961 0.185951
739 1 0.445031 0.376022 0.0434716
525 1 0.393121 0.305349 0.0415384
362 2 0.360843 0.193601 0.227567
488 2 0.43745 0.142755 0.0561531
564 1 0.640315 0.25259 0.1712
1097 2 0.618936 0.341712 0.213427
487 1 0.419983 0.135191 0.082505
361 1 0.340403 0.170837 0.238555
513 1 0.334386 0.358205 0.0899756
810 1 0.572585 0.0778121 0.226657
363 1 0.379986 0.217639 0.216966
282 1 0.636239 0.0603222 0.0967713
512 2 0.337579 0.326764 0.0975883
524 2 0.378687 0.280891 0.0257217
1492 1 0.583078 0.409672 0.0432562
646 1 0.351686 0.395103 0.226562
403 1 0.343595 0.077614 0.0489194
741 1 0.427037 0.35164 0.100978
921 1 0.403855 0.0620588 0.168612
1096 1 0.648888 0.346891 0.224952
740 2 0.435436 0.363981 0.0721012
405 1 0.356791 0.0326076 0.093865
853 1 0.556018 0.476709 0.122852
511 1 0.341499 0.294659 0.100852
1181 2 0.564933 0.359769 0.114817
648 1 0.39434 0.436257 0.199933
1493 2 0.575431 0.401828 0.0126504
823 1 0.579494 0.16931 0.0294885
1180 1 0.537428 0.373425 0.125479
245 2 0.471291 0.337761 0.179043
246 1 0.470555 0.365332 0.196247
647 2 0.373092 0.416202 0.214181
824 2 0.556499 0.161116 0.00802244
854 2 0.588008 0.47094 0.12311
1182 1 0.592707 0.345643 0.105555
855 1 0.620317 0.467446 0.122315
244 1 0.469677 0.309219 0.163569
1098 1 0.58938 0.337865 0.200453
523 1 0.365246 0.256425 0.00906374
196 1 0.60437 0.0514539 0.00462901
929 2 0.491763 0.0282278 0.112698
310 1 0.62628 0.137639 0.218448
223 1 0.526261 0.180883 0.244566
1375 1 0.470652 0.440981 0.0151631
311 2 0.622464 0.154387 0.246045
1236 1 0.495082 0.0910319 0.240851
3 1 0.66093 0.333009 0.0138906
1426 1 0.510135 0.156775 0.38809
1427 2 0.540085 0.165673 0.397063
1428 1 0.569366 0.175544 0.407157
409 1 0.544227 0.488902 0.38633
534 1 0.661628 0.262412 0.386715
53 2 0.651364 0.155625 0.496535
132 1 0.390151 0.396467 0.392258
962 2 0.417237 0.497494 0.384312
484 1 0.602453 0.0221905 0.430397
1235 2 0.504331 0.101093 0.270345
1234 1 0.512967 0.115632 0.298108
224 2 0.50739 0.203036 0.259052
54 1 0.647157 0.123393 0.496249
485 2 0.578865 0.00760782 0.413437
253 1 0.508245 0.240058 0.455047
540 1 0.512305 0.35719 0.493858
438 1 0.424956 0.235075 0.426811
886 1 0.393636 0.0146713 0.277062
225 1 0.488935 0.224229 0.275393
131 2 0.383316 0.372042 0.41259
436 1 0.442554 0.297274 0.433073
909 1 0.490607 0.105288 0.46437
746 2 0.607082 0.405703 0.469497
133 1 0.650042 0.491592 0.327134
1157 2 0.635427 0.402266 0.348298
410 2 0.524852 0.49041 0.360272
437 2 0.432373 0.26661 0.429496
633 1 0.476071 0.392203 0.410616
632 2 0.47058 0.370982 0.38661
918 1 0.549361 0.203259 0.326926
130 1 0.37727 0.34711 0.432553
1248 1 0.57876 0.304723 0.444395
1247 2 0.561742 0.325977 0.426636
209 2 0.661133 0.0895804 0.307031
631 1 0.464683 0.350242 0.362284
1156 1 0.65693 0.38582 0.366295
917 2 0.573584 0.223526 0.319231
208 1 0.632744 0.0803074 0.294194
961 1 0.408572 0.473858 0.363747
411 1 0.50273 0.493857 0.336703
877 1 0.566927 0.00682098 0.278309
312 1 0.61921 0.172537 0.272816
1246 1 0.546373 0.344805 0.405049
916 1 0.59663 0.244904 0.310951
1158 1 0.615015 0.420995 0.33129
747 1 0.587643 0.413331 0.444584
254 2 0.530561 0.236206 0.478367
908 2 0.4807 0.127777 0.485649
555 1 0.455079 0.0710825 0.652683
234 1 0.506799 0.262533 0.705601
992 2 0.593321 0.0153821 0.514776
1359 1 0.633076 0.0778719 0.605816
179 2 0.470731 0.275679 0.550265
1176 1 0.551789 0.133194 0.627624
258 1 0.388473 0.30756 0.658549
1466 2 0.529562 0.464155 0.694538
180 1 0.464436 0.258872 0.523162
178 1 0.477995 0.294944 0.575421
429 1 0.363889 0.0844989 0.650279
1042 1 0.578038 0.152261 0.710052
428 2 0.367809 0.114759 0.661489
427 1 0.370121 0.14434 0.674769
220 1 0.399352 0.350653 0.506044
221 2 0.386386 0.320868 0.504837
1452 1 0.598762 0.239087 0.606296
1451 2 0.568546 0.228275 0.60112
1450 1 0.539071 0.215962 0.595093
1175 2 0.543558 0.10742 0.609605
1014 1 0.50093 0.392912 0.633639
257 2 0.395616 0.32907 0.681851
717 1 0.476346 0.170473 0.665743
716 2 0.480572 0.147911 0.688761
715 1 0.483551 0.126042 0.712626
1199 2 0.455417 0.0270094 0.527854
1174 1 0.53719 0.0802644 0.592911
1458 1 0.36219 0.00178654 0.699255
1043 2 0.574402 0.182379 0.698374
551 2 0.639369 0.0876673 0.695165
1012 1 0.47195 0.343811 0.664706
354 1 0.394507 0.434499 0.553287
1044 1 0.57132 0.212911 0.687652
1256 2 0.612006 0.36113 0.641275
993 1 0.624021 0.0253027 0.518755
256 1 0.401845 0.350763 0.705247
1200 1 0.446098 0.0573488 0.534882
213 1 0.426473 0.479642 0.655894
553 1 0.461103 0.013804 0.682836
745 1 0.626611 0.401295 0.495108
212 2 0.404407 0.463753 0.673708
539 2 0.515473 0.375451 0.520564
538 1 0.517473 0.39313 0.54777
353 2 0.404002 0.420657 0.581124
222 1 0.375201 0.290359 0.503951
57 1 0.599154 -0.00125006 0.629011
1255 1 0.611885 0.352479 0.609941
1465 1 0.510832 0.476935 0.717831
1013 2 0.486642 0.367402 0.647844
1467 1 0.549874 0.45213 0.672188
352 1 0.413409 0.406833 0.609001
211 1 0.380466 0.447031 0.687988
1358 2 0.663909 0.0680747 0.602648
1257 1 0.608365 0.373361 0.671172
907 1 0.470145 0.149163 0.507738
554 2 0.457858 0.0422897 0.667515
504 1 0.664561 0.449455 0.587534
552 1 0.609249 0.0761339 0.691105
190 1 0.547885 0.0161589 0.72055
255 1 0.552752 0.234887 0.502086
475 1 0.646306 0.156571 0.64407
233 2 0.512951 0.278746 0.733097
996 1 0.34687 0.0482765 0.565573
503 2 0.653075 0.468412 0.563755
27 1 0.343521 0.48597 0.601863
191 2 0.533139 0.0330654 0.744076
502 1 0.641914 0.485986 0.538789
1068 1 0.340638 0.354667 0.572876
1457 2 0.335248 0.00821487 0.682238
52 1 0.654291 0.187862 0.49952
991 1 0.562198 0.00698028 0.510593
1198 1 0.464544 -0.00344871 0.521092
456 1 0.322444 0.170067 0.74513
574 1 0.340254 0.210767 0.844216
575 2 0.344742 0.194009 0.871707
1240 1 0.376682 0.0247672 0.921005
448 1 0.49488 0.21352 0.83296
421 1 0.428945 0.0713965 0.999698
197 2 0.626694 0.0328775 0.990026
1443 1 0.639476 0.211165 0.913444
35 2 0.647418 0.0421507 0.84468
875 2 0.351183 0.294114 0.933418
1476 1 0.540854 0.0942418 0.87835
423 1 0.465068 0.0615266 0.946556
1474 1 0.547803 0.06116 0.933838
422 2 0.446804 0.0667056 0.972944
1187 2 0.427941 0.184706 0.937771
1475 2 0.545099 0.0784615 0.906451
198 1 0.64841 0.0139343 0.974984
450 1 0.500741 0.205107 0.768799
449 2 0.497163 0.210223 0.800701
34 1 0.644641 0.0171977 0.824032
1188 1 0.434538 0.152984 0.935137
192 1 0.5188 0.0487656 0.768665
641 2 0.526417 0.338227 0.850714
640 1 0.512492 0.31397 0.867278
1386 1 0.598143 0.250308 0.773294
1089 1 0.494779 0.401921 0.767491
232 1 0.520594 0.296692 0.759101
1384 1 0.582476 0.188864 0.787581
937 1 0.529531 0.4627 0.853904
1490 2 0.346348 0.42202 0.910392
702 1 0.50474 0.32939 0.999908
938 2 0.508993 0.446644 0.873323
1087 1 0.439986 0.428505 0.790234
1088 2 0.467201 0.414881 0.778813
700 1 0.451517 0.309838 0.968134
701 2 0.477793 0.32027 0.984178
1489 1 0.36768 0.397559 0.912215
874 1 0.34873 0.323608 0.946865
1057 1 0.655617 0.159819 0.778162
1385 2 0.589673 0.219699 0.780226
939 1 0.489845 0.429138 0.892908
1494 1 0.564668 0.394156 0.982952
825 1 0.534913 0.15225 0.985392
576 1 0.350619 0.175647 0.897879
642 1 0.539042 0.361811 0.832245
1376 2 0.445386 0.451205 0.997448
1186 1 0.419667 0.216131 0.938593
876 1 0.352465 0.264255 0.92063
36 1 0.650532 0.0682185 0.86385
1377 1 0.420398 0.461422 0.97934
1071 1 0.458587 0.549193 0.0262572
656 2 0.607606 0.644303 0.144016
585 1 0.426596 0.632474 0.143694
1453 1 0.482737 0.579495 0.175559
474 1 0.352865 0.582843 0.207496
657 1 0.59774 0.669316 0.162285
1454 2 0.505349 0.599268 0.163133
473 2 0.362227 0.573634 0.177759
584 2 0.408902 0.659588 0.140779
655 1 0.616215 0.617341 0.128028
1455 1 0.52802 0.61887 0.150543
1371 1 0.520162 0.832377 0.038875
472 1 0.372129 0.563162 0.148622
1388 2 0.603672 0.575016 0.217987
1389 1 0.630898 0.561619 0.229649
1387 1 0.577008 0.587255 0.20399
453 1 0.628953 0.956421 0.231831
941 2 0.604753 0.563163 0.00394394
15 1 0.411316 0.766422 0.125819
1070 2 0.487993 0.536019 0.0219579
831 1 0.485964 0.873855 0.226497
673 1 0.54692 0.897672 0.148298
1401 1 0.586656 0.699243 0.0856537
1406 2 0.464672 0.980506 0.218006
1400 2 0.585893 0.726383 0.0677777
583 1 0.389475 0.685623 0.13955
674 2 0.577115 0.889998 0.13902
171 1 0.374771 0.967968 0.201604
1069 1 0.517243 0.52235 0.0181813
1407 1 0.457248 0.967566 0.246888
829 1 0.543004 0.844749 0.237666
816 1 0.46389 0.894229 0.0865411
1293 1 0.622509 0.77717 0.137008
930 1 0.506897 0.999693 0.116362
1292 2 0.617545 0.766164 0.16719
13 1 0.361284 0.807563 0.130337
1291 1 0.610619 0.755154 0.196981
814 1 0.441242 0.937273 0.129619
1370 2 0.517085 0.859989 0.0219993
14 2 0.387004 0.787707 0.129367
942 1 0.598598 0.577462 0.0324809
815 2 0.451493 0.915338 0.107929
1369 1 0.515306 0.888528 0.00653618
675 1 0.608248 0.884285 0.131619
830 2 0.514604 0.859311 0.231495
1399 1 0.584575 0.752875 0.0489854
170 2 0.344493 0.967344 0.18979
22 1 0.540693 0.600019 0.357892
953 2 0.637339 0.543862 0.438887
11 2 0.534316 0.538941 0.458409
566 2 0.457941 0.98961 0.389284
582 1 0.533747 0.851196 0.477056
10 1 0.551543 0.552187 0.434233
340 1 0.601022 0.923813 0.466459
12 1 0.51785 0.526079 0.483312
565 1 0.461054 0.989824 0.421641
260 2 0.487377 0.609258 0.48897
878 2 0.554601 0.978485 0.268217
23 2 0.569571 0.602691 0.372576
24 1 0.597371 0.606674 0.388947
680 2 0.478825 0.88975 0.371382
1328 2 0.471925 0.587706 0.291593
1197 1 0.646767 0.666196 0.274522
261 1 0.471673 0.604936 0.460838
1153 1 0.486734 0.793394 0.310961
1196 2 0.616681 0.677609 0.269907
135 1 0.59607 0.517578 0.301872
451 1 0.657368 0.918865 0.276632
343 1 0.439906 0.711071 0.416459
344 2 0.408497 0.705658 0.422856
345 1 0.376843 0.699857 0.427446
579 1 0.613415 0.755099 0.455233
879 1 0.545004 0.949743 0.256449
1327 1 0.481697 0.574627 0.263483
134 2 0.623067 0.504343 0.31423
1195 1 0.586531 0.68768 0.263103
952 1 0.640216 0.529288 0.409973
679 1 0.4689 0.884997 0.340794
471 1 0.655172 0.755472 0.303248
137 2 0.35043 0.860216 0.475738
333 1 0.660785 0.575606 0.319965
158 2 0.578962 0.721871 0.363375
157 1 0.568082 0.747061 0.380805
1155 1 0.425986 0.777612 0.29416
578 2 0.594662 0.767538 0.478692
452 2 0.643478 0.937298 0.253741
293 2 0.619866 0.848891 0.351773
81 1 0.50668 0.760327 0.463978
1233 1 0.355201 0.832217 0.270041
1154 2 0.456333 0.786382 0.301832
294 1 0.637146 0.828806 0.370607
470 2 0.667917 0.756782 0.273372
681 1 0.48955 0.895545 0.401516
445 1 0.350912 0.879522 0.383016
549 1 0.418155 0.785891 0.450355
548 2 0.418271 0.797453 0.419974
292 1 0.602882 0.869103 0.332807
136 1 0.379144 0.848655 0.465812
446 2 0.374897 0.901048 0.387267
1232 2 0.342487 0.805858 0.255888
547 1 0.417236 0.807116 0.388954
159 1 0.590921 0.696818 0.346462
447 1 0.397616 0.924098 0.390304
1329 1 0.458754 0.599345 0.318939
342 1 0.591185 0.890596 0.411526
888 1 0.383619 0.969486 0.322653
954 1 0.635913 0.559647 0.467269
341 2 0.594637 0.907122 0.439305
567 1 0.455786 0.988553 0.356866
486 1 0.555178 0.992247 0.397322
963 1 0.426863 0.521687 0.403775
493 1 0.589185 0.627498 0.483466
80 2 0.485406 0.739535 0.477085
887 2 0.38882 0.991185 0.299015
581 2 0.514892 0.835356 0.498276
559 1 0.605568 0.629852 0.706402
629 2 0.614961 0.90755 0.582693
1266 1 0.437112 0.695667 0.698377
669 1 0.449164 0.596608 0.577508
561 1 0.606684 0.585246 0.659133
1264 1 0.488425 0.671121 0.729835
897 1 0.574163 0.702845 0.582997
1034 2 0.389312 0.691828 0.580989
1035 1 0.37535 0.675864 0.556353
560 2 0.606295 0.607114 0.683182
1265 2 0.463041 0.683231 0.713533
667 1 0.440108 0.586388 0.64105
1033 1 0.404281 0.70793 0.604934
668 2 0.444255 0.59076 0.609106
495 1 0.605538 0.603055 0.541448
1138 1 0.515207 0.531011 0.613098
628 1 0.60541 0.936909 0.572519
1140 1 0.556343 0.518356 0.564396
743 2 0.430475 0.923573 0.525596
434 2 0.651752 0.522256 0.663392
425 2 0.345493 0.567838 0.687861
424 1 0.344221 0.580823 0.658087
1114 1 0.652008 0.811806 0.715667
494 2 0.597431 0.615368 0.512476
1228 1 0.407261 0.79243 0.551343
433 1 0.634764 0.50525 0.641507
259 1 0.502515 0.610711 0.517701
1410 1 0.616329 0.948267 0.730249
426 1 0.346076 0.554702 0.71759
1139 2 0.536253 0.524265 0.589259
40 1 0.328678 0.697545 0.671838